# Probe 0 (0 0 0)
# Probe 1 (0 0.011 0)
# Time         0              1             
0              0              0             
1.199999e-06   3.132304e-10   3.132304e-10  
2.639996e-06   8.217673e-10   8.217673e-10  
4.367991e-06   1.488195e-09   1.488195e-09  
6.441582e-06   2.3117e-09     2.3117e-09    
8.92989e-06    3.309978e-09   3.309978e-09  
1.191586e-05   4.51217e-09    4.51217e-09   
1.549901e-05   5.956598e-09   5.956598e-09  
1.97988e-05    7.690659e-09   7.690659e-09  
2.495853e-05   9.771822e-09   9.771822e-09  
3.115017e-05   1.226931e-08   1.226931e-08  
3.858013e-05   1.52663e-08    1.52663e-08   
4.749602e-05   1.886261e-08   1.886261e-08  
5.819505e-05   2.317808e-08   2.317808e-08  
7.103374e-05   2.835644e-08   2.835644e-08  
8.644002e-05   3.457019e-08   3.457019e-08  
0.0001049275   4.202636e-08   4.202636e-08  
0.0001271124   5.097327e-08   5.097327e-08  
0.0001537338   6.170874e-08   6.170874e-08  
0.0001856788   7.459008e-08   7.459008e-08  
0.0002240123   9.004616e-08   9.004616e-08  
0.0002700107   1.085908e-07   1.085908e-07  
0.0003252078   1.308412e-07   1.308412e-07  
0.0003914421   1.575368e-07   1.575368e-07  
0.0004709212   1.895649e-07   1.895649e-07  
0.0005662961   2.279902e-07   2.279902e-07  
0.0006807395   2.740861e-07   2.740861e-07  
0.0008180652   3.293815e-07   3.293815e-07  
0.000982838    3.957039e-07   3.957039e-07  
0.001180546    4.752473e-07   4.752473e-07  
0.001417795    5.706482e-07   5.706482e-07  
0.001702454    6.850394e-07   6.850394e-07  
0.002043985    8.221796e-07   8.221796e-07  
0.002451314    9.855896e-07   9.855896e-07  
0.00292679     1.176132e-06   1.176132e-06  
0.003473132    1.394797e-06   1.394797e-06  
0.004092862    1.642482e-06   1.642482e-06  
0.004786874    1.919408e-06   1.919408e-06  
0.005540824    2.219718e-06   2.219718e-06  
0.006303446    2.52292e-06    2.52292e-06   
0.007074351    2.828844e-06   2.828844e-06  
0.007851896    3.136821e-06   3.136821e-06  
0.008635584    3.446642e-06   3.446642e-06  
0.009425515    3.758337e-06   3.758337e-06  
0.0102218      4.071934e-06   4.071934e-06  
0.01102389     4.387209e-06   4.387209e-06  
0.01183187     4.704185e-06   4.704185e-06  
0.01264585     5.022889e-06   5.022889e-06  
0.01346591     5.343344e-06   5.343344e-06  
0.01429216     5.665577e-06   5.665577e-06  
0.01512468     5.989615e-06   5.989615e-06  
0.01596358     6.315485e-06   6.315485e-06  
0.01680825     6.642934e-06   6.642934e-06  
0.01765876     6.971984e-06   6.971984e-06  
0.01851521     7.302657e-06   7.302657e-06  
0.01937767     7.634976e-06   7.634976e-06  
0.02024548     7.968668e-06   7.968668e-06  
0.02112026     8.30435e-06    8.30435e-06   
0.02200134     8.641748e-06   8.641748e-06  
0.02288801     8.980582e-06   8.980582e-06  
0.02378035     9.320869e-06   9.320869e-06  
0.02467761     9.662315e-06   9.662315e-06  
0.02557985     1.000493e-05   1.000493e-05  
0.02648713     1.034874e-05   1.034874e-05  
0.02739952     1.069374e-05   1.069374e-05  
0.02831706     1.103996e-05   1.103996e-05  
0.02923896     1.138708e-05   1.138708e-05  
0.03016615     1.173544e-05   1.173544e-05  
0.03109778     1.208472e-05   1.208472e-05  
0.03203392     1.243494e-05   1.243494e-05  
0.03297461     1.278609e-05   1.278609e-05  
0.03391989     1.31382e-05    1.31382e-05   
0.03486982     1.349126e-05   1.349126e-05  
0.03582351     1.384495e-05   1.384495e-05  
0.03678194     1.419963e-05   1.419963e-05  
0.03774419     1.455494e-05   1.455494e-05  
0.03871031     1.49109e-05    1.49109e-05   
0.03968131     1.526786e-05   1.526786e-05  
0.04065625     1.562549e-05   1.562549e-05  
0.04163518     1.598379e-05   1.598379e-05  
0.04261811     1.634276e-05   1.634276e-05  
0.04360409     1.670204e-05   1.670204e-05  
0.04459415     1.706201e-05   1.706201e-05  
0.04558833     1.742267e-05   1.742267e-05  
0.04658562     1.778366e-05   1.778366e-05  
0.04758711     1.814536e-05   1.814536e-05  
0.04859176     1.850739e-05   1.850739e-05  
0.04959961     1.886976e-05   1.886976e-05  
0.05061175     1.923286e-05   1.923286e-05  
0.05162714     1.959631e-05   1.959631e-05  
0.0526458      1.996011e-05   1.996011e-05  
0.05366776     2.032427e-05   2.032427e-05  
0.05469304     2.068879e-05   2.068879e-05  
0.05572166     2.105368e-05   2.105368e-05  
0.05675366     2.141894e-05   2.141894e-05  
0.05778792     2.178418e-05   2.178418e-05  
0.0588256      2.214979e-05   2.214979e-05  
0.05986672     2.25158e-05    2.25158e-05   
0.06091015     2.288178e-05   2.288178e-05  
0.06195708     2.324816e-05   2.324816e-05  
0.06300634     2.361453e-05   2.361453e-05  
0.06405914     2.398131e-05   2.398131e-05  
0.06511551     2.434849e-05   2.434849e-05  
0.06617427     2.471567e-05   2.471567e-05  
0.06723664     2.508326e-05   2.508326e-05  
0.06830144     2.545086e-05   2.545086e-05  
0.06936868     2.581847e-05   2.581847e-05  
0.0704396      2.618651e-05   2.618651e-05  
0.071513       2.655456e-05   2.655456e-05  
0.07258888     2.692263e-05   2.692263e-05  
0.07366726     2.729071e-05   2.729071e-05  
0.07474943     2.765924e-05   2.765924e-05  
0.07583413     2.80278e-05    2.80278e-05   
0.07692139     2.839639e-05   2.839639e-05  
0.07801121     2.876501e-05   2.876501e-05  
0.07910361     2.913366e-05   2.913366e-05  
0.08019861     2.950234e-05   2.950234e-05  
0.08129623     2.987107e-05   2.987107e-05  
0.08239647     3.023984e-05   3.023984e-05  
0.08349804     3.060821e-05   3.060821e-05  
0.08460225     3.097663e-05   3.097663e-05  
0.08570914     3.13451e-05    3.13451e-05   
0.08681738     3.171318e-05   3.171318e-05  
0.0879283      3.208132e-05   3.208132e-05  
0.08904194     3.244952e-05   3.244952e-05  
0.09015695     3.281734e-05   3.281734e-05  
0.09127469     3.318522e-05   3.318522e-05  
0.09239381     3.355273e-05   3.355273e-05  
0.0935157      3.39203e-05    3.39203e-05   
0.09464037     3.428796e-05   3.428796e-05  
0.09576644     3.465523e-05   3.465523e-05  
0.09689532     3.50226e-05    3.50226e-05   
0.09802561     3.538959e-05   3.538959e-05  
0.09915875     3.575667e-05   3.575667e-05  
0.1002933      3.612338e-05   3.612338e-05  
0.1014307      3.649019e-05   3.649019e-05  
0.1025696      3.685663e-05   3.685663e-05  
0.1037114      3.722318e-05   3.722318e-05  
0.1048546      3.758937e-05   3.758937e-05  
0.1060008      3.795567e-05   3.795567e-05  
0.1071484      3.832161e-05   3.832161e-05  
0.1082975      3.86872e-05    3.86872e-05   
0.1094495      3.905291e-05   3.905291e-05  
0.1106031      3.941828e-05   3.941828e-05  
0.1117597      3.978376e-05   3.978376e-05  
0.1129177      4.014891e-05   4.014891e-05  
0.1140773      4.051371e-05   4.051371e-05  
0.11524        4.087865e-05   4.087865e-05  
0.1164041      4.124324e-05   4.124324e-05  
0.1175698      4.160751e-05   4.160751e-05  
0.1187386      4.197192e-05   4.197192e-05  
0.1199089      4.233599e-05   4.233599e-05  
0.1210808      4.269974e-05   4.269974e-05  
0.1222543      4.306316e-05   4.306316e-05  
0.1234309      4.342675e-05   4.342675e-05  
0.1246091      4.379e-05      4.379e-05     
0.1257888      4.415294e-05   4.415294e-05  
0.1269702      4.451556e-05   4.451556e-05  
0.1281532      4.487787e-05   4.487787e-05  
0.1293377      4.523986e-05   4.523986e-05  
0.1305255      4.560203e-05   4.560203e-05  
0.131715       4.59639e-05    4.59639e-05   
0.132906       4.632545e-05   4.632545e-05  
0.1340987      4.668671e-05   4.668671e-05  
0.1352931      4.704766e-05   4.704766e-05  
0.1364891      4.740831e-05   4.740831e-05  
0.1376867      4.776867e-05   4.776867e-05  
0.1388861      4.812873e-05   4.812873e-05  
0.1400871      4.84885e-05    4.84885e-05   
0.1412897      4.884798e-05   4.884798e-05  
0.1424941      4.920717e-05   4.920717e-05  
0.1437002      4.956608e-05   4.956608e-05  
0.1449079      4.99247e-05    4.99247e-05   
0.1461174      5.028305e-05   5.028305e-05  
0.1473286      5.064112e-05   5.064112e-05  
0.1485415      5.099891e-05   5.099891e-05  
0.1497561      5.135644e-05   5.135644e-05  
0.1509725      5.171369e-05   5.171369e-05  
0.1521906      5.207068e-05   5.207068e-05  
0.1534105      5.24274e-05    5.24274e-05   
0.1546321      5.278386e-05   5.278386e-05  
0.1558555      5.314006e-05   5.314006e-05  
0.1570807      5.3496e-05     5.3496e-05    
0.1583076      5.385168e-05   5.385168e-05  
0.1595364      5.420712e-05   5.420712e-05  
0.1607669      5.45623e-05    5.45623e-05   
0.1619975      5.491672e-05   5.491672e-05  
0.1632298      5.527089e-05   5.527089e-05  
0.164464       5.562482e-05   5.562482e-05  
0.1657         5.597851e-05   5.597851e-05  
0.1669378      5.633197e-05   5.633197e-05  
0.1681775      5.668519e-05   5.668519e-05  
0.1694172      5.703765e-05   5.703765e-05  
0.1706587      5.738988e-05   5.738988e-05  
0.1719021      5.774188e-05   5.774188e-05  
0.1731474      5.809367e-05   5.809367e-05  
0.1743945      5.844523e-05   5.844523e-05  
0.1756416      5.879604e-05   5.879604e-05  
0.1768907      5.914663e-05   5.914663e-05  
0.1781416      5.949701e-05   5.949701e-05  
0.1793944      5.984718e-05   5.984718e-05  
0.1806492      6.019714e-05   6.019714e-05  
0.1819039      6.054636e-05   6.054636e-05  
0.1831606      6.089537e-05   6.089537e-05  
0.1844192      6.124418e-05   6.124418e-05  
0.1856798      6.15928e-05    6.15928e-05   
0.1869403      6.194068e-05   6.194068e-05  
0.1882028      6.228837e-05   6.228837e-05  
0.1894673      6.263586e-05   6.263586e-05  
0.1907338      6.298317e-05   6.298317e-05  
0.1920022      6.33303e-05    6.33303e-05   
0.1932707      6.367669e-05   6.367669e-05  
0.1945411      6.402291e-05   6.402291e-05  
0.1958135      6.436894e-05   6.436894e-05  
0.197088       6.47148e-05    6.47148e-05   
0.1983645      6.506049e-05   6.506049e-05  
0.199641       6.540546e-05   6.540546e-05  
0.2009195      6.575026e-05   6.575026e-05  
0.2022001      6.609489e-05   6.609489e-05  
0.2034827      6.643937e-05   6.643937e-05  
0.2047674      6.678368e-05   6.678368e-05  
0.2060521      6.712728e-05   6.712728e-05  
0.2073389      6.747072e-05   6.747072e-05  
0.2086278      6.781401e-05   6.781401e-05  
0.2099188      6.815715e-05   6.815715e-05  
0.2112119      6.850015e-05   6.850015e-05  
0.212505       6.884243e-05   6.884243e-05  
0.2138002      6.918458e-05   6.918458e-05  
0.2150976      6.952658e-05   6.952658e-05  
0.2163971      6.986845e-05   6.986845e-05  
0.2176987      7.021018e-05   7.021018e-05  
0.2190026      7.055178e-05   7.055178e-05  
0.2203064      7.089268e-05   7.089268e-05  
0.2216124      7.123345e-05   7.123345e-05  
0.2229206      7.15741e-05    7.15741e-05   
0.2242311      7.191463e-05   7.191463e-05  
0.2255415      7.225446e-05   7.225446e-05  
0.2268541      7.259418e-05   7.259418e-05  
0.228169       7.293378e-05   7.293378e-05  
0.2294861      7.327327e-05   7.327327e-05  
0.2308055      7.361265e-05   7.361265e-05  
0.2321271      7.395192e-05   7.395192e-05  
0.2334488      7.429051e-05   7.429051e-05  
0.2347727      7.462899e-05   7.462899e-05  
0.2360989      7.496738e-05   7.496738e-05  
0.2374274      7.530567e-05   7.530567e-05  
0.2387583      7.564386e-05   7.564386e-05  
0.2400914      7.598197e-05   7.598197e-05  
0.2414246      7.631939e-05   7.631939e-05  
0.2427601      7.665673e-05   7.665673e-05  
0.244098       7.699398e-05   7.699398e-05  
0.2454383      7.733115e-05   7.733115e-05  
0.2467809      7.766825e-05   7.766825e-05  
0.2481235      7.800467e-05   7.800467e-05  
0.2494686      7.834101e-05   7.834101e-05  
0.250816       7.867729e-05   7.867729e-05  
0.2521659      7.901349e-05   7.901349e-05  
0.2535158      7.934903e-05   7.934903e-05  
0.2548681      7.96845e-05    7.96845e-05   
0.2562229      8.001992e-05   8.001992e-05  
0.2575802      8.035527e-05   8.035527e-05  
0.2589399      8.069057e-05   8.069057e-05  
0.2602997      8.102521e-05   8.102521e-05  
0.2616619      8.13598e-05    8.13598e-05   
0.2630267      8.169434e-05   8.169434e-05  
0.264394       8.202883e-05   8.202883e-05  
0.2657638      8.236329e-05   8.236329e-05  
0.2671337      8.269708e-05   8.269708e-05  
0.2685061      8.303084e-05   8.303084e-05  
0.269881       8.336456e-05   8.336456e-05  
0.2712586      8.369825e-05   8.369825e-05  
0.2726388      8.403192e-05   8.403192e-05  
0.274019       8.436493e-05   8.436493e-05  
0.2754018      8.469791e-05   8.469791e-05  
0.2767873      8.503088e-05   8.503088e-05  
0.2781754      8.536383e-05   8.536383e-05  
0.2795636      8.569612e-05   8.569612e-05  
0.2809544      8.602841e-05   8.602841e-05  
0.2823479      8.636068e-05   8.636068e-05  
0.2837441      8.669296e-05   8.669296e-05  
0.2851403      8.702458e-05   8.702458e-05  
0.2865392      8.73562e-05    8.73562e-05   
0.2879409      8.768782e-05   8.768782e-05  
0.2893454      8.801945e-05   8.801945e-05  
0.2907498      8.835043e-05   8.835043e-05  
0.2921571      8.868142e-05   8.868142e-05  
0.2935671      8.901243e-05   8.901243e-05  
0.2949772      8.934279e-05   8.934279e-05  
0.29639        8.967317e-05   8.967317e-05  
0.2978057      9.000358e-05   9.000358e-05  
0.2992243      9.033401e-05   9.033401e-05  
0.3006429      9.06638e-05    9.06638e-05   
0.3020643      9.099362e-05   9.099362e-05  
0.3034887      9.132348e-05   9.132348e-05  
0.304916       9.165337e-05   9.165337e-05  
0.3063462      9.19833e-05    9.19833e-05   
0.3077764      9.231259e-05   9.231259e-05  
0.3092096      9.264193e-05   9.264193e-05  
0.3106457      9.297132e-05   9.297132e-05  
0.3120849      9.330076e-05   9.330076e-05  
0.313524       9.362957e-05   9.362957e-05  
0.3149662      9.395843e-05   9.395843e-05  
0.3164114      9.428736e-05   9.428736e-05  
0.3178567      9.461565e-05   9.461565e-05  
0.3193049      9.494401e-05   9.494401e-05  
0.3207563      9.527244e-05   9.527244e-05  
0.3222108      9.560094e-05   9.560094e-05  
0.3236653      9.592881e-05   9.592881e-05  
0.3251229      9.625676e-05   9.625676e-05  
0.3265837      9.658479e-05   9.658479e-05  
0.3280445      9.691219e-05   9.691219e-05  
0.3295084      9.723969e-05   9.723969e-05  
0.3309756      9.756727e-05   9.756727e-05  
0.332446       9.789495e-05   9.789495e-05  
0.3339163      9.8222e-05     9.8222e-05    
0.33539        9.854916e-05   9.854916e-05  
0.3368669      9.887641e-05   9.887641e-05  
0.3383438      9.920305e-05   9.920305e-05  
0.339824       9.952979e-05   9.952979e-05  
0.3413075      9.985665e-05   9.985665e-05  
0.3427911      0.0001001829   0.0001001829  
0.344278       0.0001005092   0.0001005092  
0.3457683      0.0001008357   0.0001008357  
0.3472585      0.0001011616   0.0001011616  
0.3487522      0.0001014876   0.0001014876  
0.3502494      0.0001018137   0.0001018137  
0.3517465      0.0001021392   0.0001021392  
0.3532471      0.0001024649   0.0001024649  
0.3547511      0.0001027906   0.0001027906  
0.3562552      0.0001031158   0.0001031158  
0.3577628      0.0001034411   0.0001034411  
0.359274       0.0001037666   0.0001037666  
0.3607851      0.0001040915   0.0001040915  
0.3622998      0.0001044165   0.0001044165  
0.3638146      0.0001047409   0.0001047409  
0.3653329      0.0001050655   0.0001050655  
0.3668549      0.0001053902   0.0001053902  
0.3683769      0.0001057144   0.0001057144  
0.3699025      0.0001060387   0.0001060387  
0.3714319      0.0001063632   0.0001063632  
0.3729613      0.0001066871   0.0001066871  
0.3744944      0.0001070112   0.0001070112  
0.3760312      0.0001073354   0.0001073354  
0.3775681      0.0001076591   0.0001076591  
0.3791088      0.0001079829   0.0001079829  
0.3806494      0.0001083062   0.0001083062  
0.382194       0.0001086296   0.0001086296  
0.3837423      0.0001089533   0.0001089533  
0.3852907      0.0001092764   0.0001092764  
0.386843       0.0001095997   0.0001095997  
0.3883953      0.0001099223   0.0001099223  
0.3899516      0.0001102452   0.0001102452  
0.3915118      0.0001105684   0.0001105684  
0.393072       0.0001108909   0.0001108909  
0.3946363      0.0001112136   0.0001112136  
0.3962005      0.0001115358   0.0001115358  
0.3977688      0.0001118582   0.0001118582  
0.3993371      0.00011218     0.00011218    
0.4009095      0.0001125021   0.0001125021  
0.402482       0.0001128236   0.0001128236  
0.4040585      0.0001131453   0.0001131453  
0.4056351      0.0001134664   0.0001134664  
0.4072159      0.0001137878   0.0001137878  
0.4088008      0.0001141095   0.0001141095  
0.4103858      0.0001144305   0.0001144305  
0.4119751      0.0001147519   0.0001147519  
0.4135643      0.0001150726   0.0001150726  
0.4151579      0.0001153937   0.0001153937  
0.4167515      0.0001157141   0.0001157141  
0.4183494      0.0001160348   0.0001160348  
0.4199474      0.000116355    0.000116355   
0.4215497      0.0001166754   0.0001166754  
0.4231521      0.0001169953   0.0001169953  
0.4247589      0.0001173155   0.0001173155  
0.4263657      0.0001176351   0.0001176351  
0.427977       0.000117955    0.000117955   
0.4295929      0.0001182752   0.0001182752  
0.4312088      0.0001185948   0.0001185948  
0.4328293      0.0001189148   0.0001189148  
0.4344498      0.0001192342   0.0001192342  
0.4360749      0.0001195539   0.0001195539  
0.4377001      0.0001198731   0.0001198731  
0.4393299      0.0001201926   0.0001201926  
0.4409598      0.0001205115   0.0001205115  
0.4425944      0.0001208307   0.0001208307  
0.4442338      0.0001211503   0.0001211503  
0.4458733      0.0001214694   0.0001214694  
0.4475176      0.0001217888   0.0001217888  
0.4491619      0.0001221076   0.0001221076  
0.4508111      0.0001224268   0.0001224268  
0.4524603      0.0001227455   0.0001227455  
0.4541145      0.0001230645   0.0001230645  
0.4557687      0.0001233829   0.0001233829  
0.4574279      0.0001237018   0.0001237018  
0.4590872      0.00012402     0.00012402    
0.4607515      0.0001243387   0.0001243387  
0.4624159      0.0001246568   0.0001246568  
0.4640854      0.0001249753   0.0001249753  
0.4657601      0.0001252942   0.0001252942  
0.4674348      0.0001256126   0.0001256126  
0.4691149      0.0001259313   0.0001259313  
0.4707949      0.0001262496   0.0001262496  
0.4724802      0.0001265682   0.0001265682  
0.4741656      0.0001268863   0.0001268863  
0.4758564      0.0001272048   0.0001272048  
0.4775472      0.0001275228   0.0001275228  
0.4792435      0.0001278412   0.0001278412  
0.4809397      0.000128159    0.000128159   
0.4826416      0.0001284773   0.0001284773  
0.4843434      0.0001287951   0.0001287951  
0.4860452      0.0001291122   0.0001291122  
0.4877527      0.0001294299   0.0001294299  
0.4894602      0.000129747    0.000129747   
0.4911734      0.0001300646   0.0001300646  
0.4928867      0.0001303816   0.0001303816  
0.4946057      0.0001306991   0.0001306991  
0.4963247      0.0001310161   0.0001310161  
0.4980496      0.0001313336   0.0001313336  
0.4997746      0.0001316505   0.0001316505  
0.5015054      0.000131968    0.000131968   
0.5032363      0.0001322848   0.0001322848  
0.5049672      0.0001326012   0.0001326012  
0.5067042      0.000132918    0.000132918   
0.5084411      0.0001332343   0.0001332343  
0.5101842      0.0001335512   0.0001335512  
0.5119274      0.0001338675   0.0001338675  
0.5136705      0.0001341832   0.0001341832  
0.5154199      0.0001344995   0.0001344995  
0.5171692      0.0001348153   0.0001348153  
0.518925       0.0001351316   0.0001351316  
0.5206807      0.0001354474   0.0001354474  
0.5224365      0.0001357626   0.0001357626  
0.5241987      0.0001360785   0.0001360785  
0.5259609      0.0001363937   0.0001363937  
0.5277232      0.0001367084   0.0001367084  
0.529492       0.0001370238   0.0001370238  
0.5312608      0.0001373386   0.0001373386  
0.5330363      0.000137654    0.000137654   
0.5348119      0.0001379688   0.0001379688  
0.5365874      0.0001382832   0.0001382832  
0.5383698      0.0001385981   0.0001385981  
0.5401521      0.0001389125   0.0001389125  
0.5419345      0.0001392264   0.0001392264  
0.5437238      0.0001395409   0.0001395409  
0.5455131      0.0001398549   0.0001398549  
0.5473095      0.0001401696   0.0001401696  
0.5491059      0.0001404837   0.0001404837  
0.5509023      0.0001407973   0.0001407973  
0.5527059      0.0001411116   0.0001411116  
0.5545095      0.0001414253   0.0001414253  
0.5563131      0.0001417385   0.0001417385  
0.5581241      0.0001420524   0.0001420524  
0.559935       0.0001423657   0.0001423657  
0.561746       0.0001426786   0.0001426786  
0.5635645      0.0001429921   0.0001429921  
0.565383       0.0001433052   0.0001433052  
0.5672014      0.0001436176   0.0001436176  
0.5690276      0.0001439309   0.0001439309  
0.5708537      0.0001442436   0.0001442436  
0.5726799      0.0001445558   0.0001445558  
0.5745061      0.0001448674   0.0001448674  
0.5763401      0.0001451798   0.0001451798  
0.5781741      0.0001454917   0.0001454917  
0.5800081      0.000145803    0.000145803   
0.5818502      0.0001461152   0.0001461152  
0.5836923      0.0001464268   0.0001464268  
0.5855343      0.0001467379   0.0001467379  
0.5873846      0.0001470499   0.0001470499  
0.5892349      0.0001473613   0.0001473613  
0.5910852      0.0001476722   0.0001476722  
0.5929355      0.0001479825   0.0001479825  
0.5947943      0.0001482937   0.0001482937  
0.596653       0.0001486044   0.0001486044  
0.5985117      0.0001489145   0.0001489145  
0.6003705      0.0001492241   0.0001492241  
0.6022379      0.0001495347   0.0001495347  
0.6041053      0.0001498446   0.0001498446  
0.6059728      0.0001501541   0.0001501541  
0.6078402      0.000150463    0.000150463   
0.6097166      0.0001507729   0.0001507729  
0.6115929      0.0001510823   0.0001510823  
0.6134693      0.0001513911   0.0001513911  
0.6153456      0.0001516994   0.0001516994  
0.6172312      0.0001520087   0.0001520087  
0.6191168      0.0001523174   0.0001523174  
0.6210023      0.0001526256   0.0001526256  
0.6228879      0.0001529333   0.0001529333  
0.6247829      0.0001532421   0.0001532421  
0.626678       0.0001535503   0.0001535503  
0.628573       0.0001538579   0.0001538579  
0.630468       0.0001541651   0.0001541651  
0.6323728      0.0001544733   0.0001544733  
0.6342776      0.000154781    0.000154781   
0.6361824      0.0001550882   0.0001550882  
0.6380872      0.0001553948   0.0001553948  
0.6399921      0.000155701    0.000155701   
0.641907       0.0001560082   0.0001560082  
0.6438219      0.0001563149   0.0001563149  
0.6457369      0.0001566211   0.0001566211  
0.6476518      0.0001569268   0.0001569268  
0.6495772      0.0001572337   0.0001572337  
0.6515026      0.00015754     0.00015754    
0.653428       0.0001578458   0.0001578458  
0.6553534      0.0001581511   0.0001581511  
0.6572788      0.0001584559   0.0001584559  
0.6592151      0.0001587619   0.0001587619  
0.6611513      0.0001590674   0.0001590674  
0.6630876      0.0001593724   0.0001593724  
0.6650239      0.0001596768   0.0001596768  
0.6669714      0.0001599826   0.0001599826  
0.668919       0.0001602878   0.0001602878  
0.6708665      0.0001605925   0.0001605925  
0.672814       0.0001608967   0.0001608967  
0.6747616      0.0001612003   0.0001612003  
0.6767209      0.0001615053   0.0001615053  
0.6786801      0.0001618098   0.0001618098  
0.6806394      0.0001621138   0.0001621138  
0.6825987      0.0001624173   0.0001624173  
0.6845579      0.0001627203   0.0001627203  
0.6865294      0.0001630247   0.0001630247  
0.6885009      0.0001633285   0.0001633285  
0.6904725      0.0001636319   0.0001636319  
0.692444       0.0001639347   0.0001639347  
0.6944155      0.0001642371   0.0001642371  
0.696387       0.000164539    0.000164539   
0.6983714      0.0001648423   0.0001648423  
0.7003558      0.0001651451   0.0001651451  
0.7023402      0.0001654474   0.0001654474  
0.7043246      0.0001657493   0.0001657493  
0.706309       0.0001660506   0.0001660506  
0.7082934      0.0001663514   0.0001663514  
0.7102914      0.0001666538   0.0001666538  
0.7122894      0.0001669557   0.0001669557  
0.7142874      0.0001672571   0.0001672571  
0.7162854      0.000167558    0.000167558   
0.7182833      0.0001678585   0.0001678585  
0.7202813      0.0001681584   0.0001681584  
0.7222937      0.00016846     0.00016846    
0.7243061      0.0001687611   0.0001687611  
0.7263184      0.0001690617   0.0001690617  
0.7283308      0.0001693618   0.0001693618  
0.7303432      0.0001696614   0.0001696614  
0.7323555      0.0001699606   0.0001699606  
0.7343679      0.0001702592   0.0001702592  
0.7363956      0.0001705596   0.0001705596  
0.7384233      0.0001708596   0.0001708596  
0.7404511      0.0001711591   0.0001711591  
0.7424788      0.000171458    0.000171458   
0.7445065      0.0001717565   0.0001717565  
0.7465342      0.0001720545   0.0001720545  
0.748562       0.0001723521   0.0001723521  
0.7506062      0.0001726515   0.0001726515  
0.7526504      0.0001729505   0.0001729505  
0.7546946      0.000173249    0.000173249   
0.7567388      0.000173547    0.000173547   
0.758783       0.0001738445   0.0001738445  
0.7608272      0.0001741416   0.0001741416  
0.7628714      0.0001744381   0.0001744381  
0.7649157      0.0001747342   0.0001747342  
0.7669778      0.0001750325   0.0001750325  
0.7690399      0.0001753302   0.0001753302  
0.7711021      0.0001756274   0.0001756274  
0.7731642      0.0001759242   0.0001759242  
0.7752264      0.0001762205   0.0001762205  
0.7772885      0.0001765164   0.0001765164  
0.7793507      0.0001768117   0.0001768117  
0.7814128      0.0001771066   0.0001771066  
0.783475       0.000177401    0.000177401   
0.7855371      0.000177695    0.000177695   
0.7875992      0.0001779885   0.0001779885  
0.7896614      0.0001782815   0.0001782815  
0.7917235      0.000178574    0.000178574   
0.7938063      0.0001788691   0.0001788691  
0.7958891      0.0001791636   0.0001791636  
0.7979718      0.0001794577   0.0001794577  
0.8000546      0.0001797513   0.0001797513  
0.8021373      0.0001800445   0.0001800445  
0.8042201      0.0001803372   0.0001803372  
0.8063029      0.0001806294   0.0001806294  
0.8083856      0.0001809212   0.0001809212  
0.8104684      0.0001812125   0.0001812125  
0.8125743      0.0001815066   0.0001815066  
0.8146802      0.0001818002   0.0001818002  
0.8167861      0.0001820934   0.0001820934  
0.818892       0.0001823861   0.0001823861  
0.8209979      0.0001826783   0.0001826783  
0.8231038      0.0001829701   0.0001829701  
0.8252098      0.0001832614   0.0001832614  
0.8273157      0.0001835523   0.0001835523  
0.8294216      0.0001838427   0.0001838427  
0.8315275      0.0001841327   0.0001841327  
0.8336334      0.0001844222   0.0001844222  
0.8357393      0.0001847113   0.0001847113  
0.8378452      0.0001849999   0.0001849999  
0.8399511      0.0001852881   0.0001852881  
0.8420851      0.0001855797   0.0001855797  
0.8442191      0.0001858708   0.0001858708  
0.8463531      0.0001861615   0.0001861615  
0.848487       0.0001864517   0.0001864517  
0.850621       0.0001867415   0.0001867415  
0.852755       0.0001870308   0.0001870308  
0.854889       0.0001873197   0.0001873197  
0.857023       0.0001876081   0.0001876081  
0.859157       0.0001878961   0.0001878961  
0.861291       0.0001881836   0.0001881836  
0.8634249      0.0001884707   0.0001884707  
0.8655589      0.0001887574   0.0001887574  
0.8676929      0.0001890436   0.0001890436  
0.8698269      0.0001893294   0.0001893294  
0.8719609      0.0001896148   0.0001896148  
0.8740949      0.0001898997   0.0001898997  
0.8762656      0.0001901891   0.0001901891  
0.8784364      0.000190478    0.000190478   
0.8806072      0.0001907666   0.0001907666  
0.882778       0.0001910546   0.0001910546  
0.8849488      0.0001913422   0.0001913422  
0.8871195      0.0001916294   0.0001916294  
0.8892903      0.0001919162   0.0001919162  
0.8914611      0.0001922025   0.0001922025  
0.8936319      0.0001924884   0.0001924884  
0.8958026      0.0001927738   0.0001927738  
0.8979734      0.0001930589   0.0001930589  
0.9001442      0.0001933435   0.0001933435  
0.902315       0.0001936276   0.0001936276  
0.9044858      0.0001939114   0.0001939114  
0.9066565      0.0001941947   0.0001941947  
0.9088273      0.0001944776   0.0001944776  
0.9109981      0.00019476     0.00019476    
0.9131689      0.0001950421   0.0001950421  
0.9153397      0.0001953237   0.0001953237  
0.9175104      0.0001956049   0.0001956049  
0.9196812      0.0001958857   0.0001958857  
0.921852       0.0001961661   0.0001961661  
0.9240228      0.000196446    0.000196446   
0.9261935      0.0001967256   0.0001967256  
0.9283643      0.0001970047   0.0001970047  
0.9305351      0.0001972834   0.0001972834  
0.9327059      0.0001975618   0.0001975618  
0.9348767      0.0001978397   0.0001978397  
0.9370474      0.0001981172   0.0001981172  
0.9392182      0.0001983943   0.0001983943  
0.941389       0.000198671    0.000198671   
0.9435598      0.0001989473   0.0001989473  
0.9457305      0.0001992232   0.0001992232  
0.9479013      0.0001994987   0.0001994987  
0.9500721      0.0001997738   0.0001997738  
0.9522429      0.0002000485   0.0002000485  
0.9544137      0.0002003228   0.0002003228  
0.9565844      0.0002005968   0.0002005968  
0.9587552      0.0002008703   0.0002008703  
0.960926       0.0002011434   0.0002011434  
0.9630968      0.0002014162   0.0002014162  
0.9652675      0.0002016885   0.0002016885  
0.9674383      0.0002019605   0.0002019605  
0.9696091      0.0002022321   0.0002022321  
0.9717799      0.0002025033   0.0002025033  
0.9739507      0.0002027741   0.0002027741  
0.9761214      0.0002030446   0.0002030446  
0.9782922      0.0002033146   0.0002033146  
0.980463       0.0002035843   0.0002035843  
0.9826338      0.0002038536   0.0002038536  
0.9848046      0.0002041225   0.0002041225  
0.9869753      0.0002043911   0.0002043911  
0.9891461      0.0002046592   0.0002046592  