# Probe 0 (0 0 0)
# Probe 1 (0 0.011 0)
# Time         0              1             
0              0              0             
1.199999e-06   4.377198e-05   4.377198e-05  
2.639996e-06   5.922081e-05   5.922081e-05  
4.367991e-06   6.724923e-05   6.724923e-05  
6.441582e-06   7.219109e-05   7.219109e-05  
8.92989e-06    7.553651e-05   7.553651e-05  
1.191586e-05   7.794206e-05   7.794206e-05  
1.549901e-05   7.974449e-05   7.974449e-05  
1.97988e-05    8.11354e-05    8.11354e-05   
2.495853e-05   8.223242e-05   8.223242e-05  
3.115017e-05   8.311206e-05   8.311206e-05  
3.858013e-05   8.382645e-05   8.382645e-05  
4.749602e-05   8.441243e-05   8.441243e-05  
5.819505e-05   8.489684e-05   8.489684e-05  
7.103374e-05   8.529974e-05   8.529974e-05  
8.644002e-05   8.563645e-05   8.563645e-05  
0.0001049275   8.591884e-05   8.591884e-05  
0.0001271124   8.615629e-05   8.615629e-05  
0.0001537338   8.635626e-05   8.635626e-05  
0.0001856788   8.652475e-05   8.652475e-05  
0.0002240123   8.666665e-05   8.666665e-05  
0.0002700107   8.67859e-05    8.67859e-05   
0.0003252078   8.688574e-05   8.688574e-05  
0.0003914421   8.69688e-05    8.69688e-05   
0.0004709212   8.70372e-05    8.70372e-05   
0.0005662961   8.709266e-05   8.709266e-05  
0.0006807395   8.71365e-05    8.71365e-05   
0.0008180652   8.716972e-05   8.716972e-05  
0.000982838    8.719304e-05   8.719304e-05  
0.001180546    8.720689e-05   8.720689e-05  
0.001417795    8.721143e-05   8.721143e-05  
0.001702454    8.720656e-05   8.720656e-05  
0.002043985    8.71919e-05    8.71919e-05   
0.002451314    8.716698e-05   8.716698e-05  
0.00292679     8.713182e-05   8.713182e-05  
0.003473132    8.708657e-05   8.708657e-05  
0.004092862    8.703143e-05   8.703143e-05  
0.004786874    8.696669e-05   8.696669e-05  
0.005540824    8.689413e-05   8.689413e-05  
0.006303446    8.681926e-05   8.681926e-05  
0.007074351    8.674256e-05   8.674256e-05  
0.007851896    8.66645e-05    8.66645e-05   
0.008635584    8.658534e-05   8.658534e-05  
0.009425515    8.650522e-05   8.650522e-05  
0.0102218      8.642423e-05   8.642423e-05  
0.01102389     8.634252e-05   8.634252e-05  
0.01183187     8.626013e-05   8.626013e-05  
0.01264585     8.61771e-05    8.61771e-05   
0.01346591     8.609347e-05   8.609347e-05  
0.01429216     8.600927e-05   8.600927e-05  
0.01512468     8.592449e-05   8.592449e-05  
0.01596358     8.583916e-05   8.583916e-05  
0.01680825     8.575337e-05   8.575337e-05  
0.01765876     8.566711e-05   8.566711e-05  
0.01851521     8.558039e-05   8.558039e-05  
0.01937767     8.549322e-05   8.549322e-05  
0.02024548     8.540568e-05   8.540568e-05  
0.02112026     8.531761e-05   8.531761e-05  
0.02200134     8.52291e-05    8.52291e-05   
0.02288801     8.514021e-05   8.514021e-05  
0.02378035     8.505096e-05   8.505096e-05  
0.02467761     8.496142e-05   8.496142e-05  
0.02557985     8.487159e-05   8.487159e-05  
0.02648713     8.478148e-05   8.478148e-05  
0.02739952     8.469108e-05   8.469108e-05  
0.02831706     8.460039e-05   8.460039e-05  
0.02923896     8.450951e-05   8.450951e-05  
0.03016615     8.441833e-05   8.441833e-05  
0.03109778     8.432695e-05   8.432695e-05  
0.03203392     8.423536e-05   8.423536e-05  
0.03297461     8.414357e-05   8.414357e-05  
0.03391989     8.405158e-05   8.405158e-05  
0.03486982     8.395938e-05   8.395938e-05  
0.03582351     8.386707e-05   8.386707e-05  
0.03678194     8.377454e-05   8.377454e-05  
0.03774419     8.36819e-05    8.36819e-05   
0.03871031     8.358915e-05   8.358915e-05  
0.03968131     8.349618e-05   8.349618e-05  
0.04065625     8.340309e-05   8.340309e-05  
0.04163518     8.330988e-05   8.330988e-05  
0.04261811     8.321656e-05   8.321656e-05  
0.04360409     8.312321e-05   8.312321e-05  
0.04459415     8.302973e-05   8.302973e-05  
0.04558833     8.293614e-05   8.293614e-05  
0.04658562     8.284251e-05   8.284251e-05  
0.04758711     8.274877e-05   8.274877e-05  
0.04859176     8.265499e-05   8.265499e-05  
0.04959961     8.256119e-05   8.256119e-05  
0.05061175     8.246726e-05   8.246726e-05  
0.05162714     8.237331e-05   8.237331e-05  
0.0526458      8.227932e-05   8.227932e-05  
0.05366776     8.218531e-05   8.218531e-05  
0.05469304     8.209126e-05   8.209126e-05  
0.05572166     8.199719e-05   8.199719e-05  
0.05675366     8.190308e-05   8.190308e-05  
0.05778792     8.180904e-05   8.180904e-05  
0.0588256      8.171498e-05   8.171498e-05  
0.05986672     8.162088e-05   8.162088e-05  
0.06091015     8.152685e-05   8.152685e-05  
0.06195708     8.143278e-05   8.143278e-05  
0.06300634     8.133879e-05   8.133879e-05  
0.06405914     8.124476e-05   8.124476e-05  
0.06511551     8.115069e-05   8.115069e-05  
0.06617427     8.10567e-05    8.10567e-05   
0.06723664     8.096266e-05   8.096266e-05  
0.06830144     8.08687e-05    8.08687e-05   
0.06936868     8.07748e-05    8.07748e-05   
0.0704396      8.068086e-05   8.068086e-05  
0.071513       8.058699e-05   8.058699e-05  
0.07258888     8.049318e-05   8.049318e-05  
0.07366726     8.039944e-05   8.039944e-05  
0.07474943     8.030566e-05   8.030566e-05  
0.07583413     8.021195e-05   8.021195e-05  
0.07692139     8.01183e-05    8.01183e-05   
0.07801121     8.002471e-05   8.002471e-05  
0.07910361     7.993119e-05   7.993119e-05  
0.08019861     7.983773e-05   7.983773e-05  
0.08129623     7.974433e-05   7.974433e-05  
0.08239647     7.9651e-05     7.9651e-05    
0.08349804     7.955784e-05   7.955784e-05  
0.08460225     7.946474e-05   7.946474e-05  
0.08570914     7.93717e-05    7.93717e-05   
0.08681738     7.927883e-05   7.927883e-05  
0.0879283      7.918602e-05   7.918602e-05  
0.08904194     7.909328e-05   7.909328e-05  
0.09015695     7.90007e-05    7.90007e-05   
0.09127469     7.890818e-05   7.890818e-05  
0.09239381     7.881583e-05   7.881583e-05  
0.0935157      7.872354e-05   7.872354e-05  
0.09464037     7.863131e-05   7.863131e-05  
0.09576644     7.853924e-05   7.853924e-05  
0.09689532     7.844723e-05   7.844723e-05  
0.09802561     7.835538e-05   7.835538e-05  
0.09915875     7.826359e-05   7.826359e-05  
0.1002933      7.817197e-05   7.817197e-05  
0.1014307      7.80804e-05    7.80804e-05   
0.1025696      7.7989e-05     7.7989e-05    
0.1037114      7.789764e-05   7.789764e-05  
0.1048546      7.780646e-05   7.780646e-05  
0.1060008      7.771532e-05   7.771532e-05  
0.1071484      7.762435e-05   7.762435e-05  
0.1082975      7.753354e-05   7.753354e-05  
0.1094495      7.744278e-05   7.744278e-05  
0.1106031      7.735218e-05   7.735218e-05  
0.1117597      7.726163e-05   7.726163e-05  
0.1129177      7.717124e-05   7.717124e-05  
0.1140773      7.708101e-05   7.708101e-05  
0.11524        7.699083e-05   7.699083e-05  
0.1164041      7.690081e-05   7.690081e-05  
0.1175698      7.681094e-05   7.681094e-05  
0.1187386      7.672112e-05   7.672112e-05  
0.1199089      7.663146e-05   7.663146e-05  
0.1210808      7.654196e-05   7.654196e-05  
0.1222543      7.645262e-05   7.645262e-05  
0.1234309      7.636331e-05   7.636331e-05  
0.1246091      7.627416e-05   7.627416e-05  
0.1257888      7.618517e-05   7.618517e-05  
0.1269702      7.609634e-05   7.609634e-05  
0.1281532      7.600766e-05   7.600766e-05  
0.1293377      7.591914e-05   7.591914e-05  
0.1305255      7.583064e-05   7.583064e-05  
0.131715       7.574231e-05   7.574231e-05  
0.132906       7.565412e-05   7.565412e-05  
0.1340987      7.556609e-05   7.556609e-05  
0.1352931      7.547822e-05   7.547822e-05  
0.1364891      7.539049e-05   7.539049e-05  
0.1376867      7.530291e-05   7.530291e-05  
0.1388861      7.521548e-05   7.521548e-05  
0.1400871      7.512821e-05   7.512821e-05  
0.1412897      7.504108e-05   7.504108e-05  
0.1424941      7.49541e-05    7.49541e-05   
0.1437002      7.486726e-05   7.486726e-05  
0.1449079      7.478058e-05   7.478058e-05  
0.1461174      7.469404e-05   7.469404e-05  
0.1473286      7.460764e-05   7.460764e-05  
0.1485415      7.452139e-05   7.452139e-05  
0.1497561      7.443528e-05   7.443528e-05  
0.1509725      7.434932e-05   7.434932e-05  
0.1521906      7.42635e-05    7.42635e-05   
0.1534105      7.417782e-05   7.417782e-05  
0.1546321      7.409229e-05   7.409229e-05  
0.1558555      7.400689e-05   7.400689e-05  
0.1570807      7.392164e-05   7.392164e-05  
0.1583076      7.383652e-05   7.383652e-05  
0.1595364      7.375155e-05   7.375155e-05  
0.1607669      7.366671e-05   7.366671e-05  
0.1619975      7.358213e-05   7.358213e-05  
0.1632298      7.349769e-05   7.349769e-05  
0.164464       7.341339e-05   7.341339e-05  
0.1657         7.332922e-05   7.332922e-05  
0.1669378      7.324519e-05   7.324519e-05  
0.1681775      7.316129e-05   7.316129e-05  
0.1694172      7.307765e-05   7.307765e-05  
0.1706587      7.299414e-05   7.299414e-05  
0.1719021      7.291076e-05   7.291076e-05  
0.1731474      7.282752e-05   7.282752e-05  
0.1743945      7.27444e-05    7.27444e-05   
0.1756416      7.266154e-05   7.266154e-05  
0.1768907      7.257881e-05   7.257881e-05  
0.1781416      7.249621e-05   7.249621e-05  
0.1793944      7.241373e-05   7.241373e-05  
0.1806492      7.233139e-05   7.233139e-05  
0.1819039      7.224929e-05   7.224929e-05  
0.1831606      7.216732e-05   7.216732e-05  
0.1844192      7.208548e-05   7.208548e-05  
0.1856798      7.200375e-05   7.200375e-05  
0.1869403      7.192228e-05   7.192228e-05  
0.1882028      7.184093e-05   7.184093e-05  
0.1894673      7.175971e-05   7.175971e-05  
0.1907338      7.16786e-05    7.16786e-05   
0.1920022      7.159762e-05   7.159762e-05  
0.1932707      7.151688e-05   7.151688e-05  
0.1945411      7.143626e-05   7.143626e-05  
0.1958135      7.135576e-05   7.135576e-05  
0.197088       7.127538e-05   7.127538e-05  
0.1983645      7.119511e-05   7.119511e-05  
0.199641       7.111509e-05   7.111509e-05  
0.2009195      7.103519e-05   7.103519e-05  
0.2022001      7.095539e-05   7.095539e-05  
0.2034827      7.087572e-05   7.087572e-05  
0.2047674      7.079616e-05   7.079616e-05  
0.2060521      7.071684e-05   7.071684e-05  
0.2073389      7.063763e-05   7.063763e-05  
0.2086278      7.055853e-05   7.055853e-05  
0.2099188      7.047955e-05   7.047955e-05  
0.2112119      7.040067e-05   7.040067e-05  
0.212505       7.032204e-05   7.032204e-05  
0.2138002      7.024351e-05   7.024351e-05  
0.2150976      7.016509e-05   7.016509e-05  
0.2163971      7.008678e-05   7.008678e-05  
0.2176987      7.000858e-05   7.000858e-05  
0.2190026      6.993048e-05   6.993048e-05  
0.2203064      6.985262e-05   6.985262e-05  
0.2216124      6.977486e-05   6.977486e-05  
0.2229206      6.969721e-05   6.969721e-05  
0.2242311      6.961966e-05   6.961966e-05  
0.2255415      6.954235e-05   6.954235e-05  
0.2268541      6.946514e-05   6.946514e-05  
0.228169       6.938803e-05   6.938803e-05  
0.2294861      6.931102e-05   6.931102e-05  
0.2308055      6.923411e-05   6.923411e-05  
0.2321271      6.91573e-05    6.91573e-05   
0.2334488      6.908072e-05   6.908072e-05  
0.2347727      6.900424e-05   6.900424e-05  
0.2360989      6.892786e-05   6.892786e-05  
0.2374274      6.885158e-05   6.885158e-05  
0.2387583      6.877539e-05   6.877539e-05  
0.2400914      6.86993e-05    6.86993e-05   
0.2414246      6.862343e-05   6.862343e-05  
0.2427601      6.854766e-05   6.854766e-05  
0.244098       6.847199e-05   6.847199e-05  
0.2454383      6.83964e-05    6.83964e-05   
0.2467809      6.832092e-05   6.832092e-05  
0.2481235      6.824565e-05   6.824565e-05  
0.2494686      6.817048e-05   6.817048e-05  
0.250816       6.80954e-05    6.80954e-05   
0.2521659      6.802041e-05   6.802041e-05  
0.2535158      6.794564e-05   6.794564e-05  
0.2548681      6.787096e-05   6.787096e-05  
0.2562229      6.779637e-05   6.779637e-05  
0.2575802      6.772186e-05   6.772186e-05  
0.2589399      6.764745e-05   6.764745e-05  
0.2602997      6.757325e-05   6.757325e-05  
0.2616619      6.749914e-05   6.749914e-05  
0.2630267      6.742512e-05   6.742512e-05  
0.264394       6.735117e-05   6.735117e-05  
0.2657638      6.727732e-05   6.727732e-05  
0.2671337      6.720368e-05   6.720368e-05  
0.2685061      6.713012e-05   6.713012e-05  
0.269881       6.705665e-05   6.705665e-05  
0.2712586      6.698325e-05   6.698325e-05  
0.2726388      6.690994e-05   6.690994e-05  
0.274019       6.683684e-05   6.683684e-05  
0.2754018      6.676382e-05   6.676382e-05  
0.2767873      6.669088e-05   6.669088e-05  
0.2781754      6.661802e-05   6.661802e-05  
0.2795636      6.654537e-05   6.654537e-05  
0.2809544      6.64728e-05    6.64728e-05   
0.2823479      6.640031e-05   6.640031e-05  
0.2837441      6.632789e-05   6.632789e-05  
0.2851403      6.625568e-05   6.625568e-05  
0.2865392      6.618355e-05   6.618355e-05  
0.2879409      6.611149e-05   6.611149e-05  
0.2893454      6.60395e-05    6.60395e-05   
0.2907498      6.596773e-05   6.596773e-05  
0.2921571      6.589602e-05   6.589602e-05  
0.2935671      6.582439e-05   6.582439e-05  
0.2949772      6.575297e-05   6.575297e-05  
0.29639        6.568161e-05   6.568161e-05  
0.2978057      6.561032e-05   6.561032e-05  
0.2992243      6.55391e-05    6.55391e-05   
0.3006429      6.546809e-05   6.546809e-05  
0.3020643      6.539715e-05   6.539715e-05  
0.3034887      6.532627e-05   6.532627e-05  
0.304916       6.525546e-05   6.525546e-05  
0.3063462      6.518471e-05   6.518471e-05  
0.3077764      6.511417e-05   6.511417e-05  
0.3092096      6.504369e-05   6.504369e-05  
0.3106457      6.497327e-05   6.497327e-05  
0.3120849      6.490291e-05   6.490291e-05  
0.313524       6.483276e-05   6.483276e-05  
0.3149662      6.476267e-05   6.476267e-05  
0.3164114      6.469264e-05   6.469264e-05  
0.3178567      6.462281e-05   6.462281e-05  
0.3193049      6.455305e-05   6.455305e-05  
0.3207563      6.448333e-05   6.448333e-05  
0.3222108      6.441368e-05   6.441368e-05  
0.3236653      6.434423e-05   6.434423e-05  
0.3251229      6.427483e-05   6.427483e-05  
0.3265837      6.420549e-05   6.420549e-05  
0.3280445      6.413635e-05   6.413635e-05  
0.3295084      6.406727e-05   6.406727e-05  
0.3309756      6.399823e-05   6.399823e-05  
0.332446       6.392925e-05   6.392925e-05  
0.3339163      6.386047e-05   6.386047e-05  
0.33539        6.379174e-05   6.379174e-05  
0.3368669      6.372306e-05   6.372306e-05  
0.3383438      6.365458e-05   6.365458e-05  
0.339824       6.358614e-05   6.358614e-05  
0.3413075      6.351776e-05   6.351776e-05  
0.3427911      6.344957e-05   6.344957e-05  
0.344278       6.338143e-05   6.338143e-05  
0.3457683      6.331333e-05   6.331333e-05  
0.3472585      6.324544e-05   6.324544e-05  
0.3487522      6.317758e-05   6.317758e-05  
0.3502494      6.310977e-05   6.310977e-05  
0.3517465      6.304216e-05   6.304216e-05  
0.3532471      6.297459e-05   6.297459e-05  
0.3547511      6.290705e-05   6.290705e-05  
0.3562552      6.283972e-05   6.283972e-05  
0.3577628      6.277242e-05   6.277242e-05  
0.359274       6.270516e-05   6.270516e-05  
0.3607851      6.26381e-05    6.26381e-05   
0.3622998      6.257107e-05   6.257107e-05  
0.3638146      6.250424e-05   6.250424e-05  
0.3653329      6.243744e-05   6.243744e-05  
0.3668549      6.237068e-05   6.237068e-05  
0.3683769      6.230411e-05   6.230411e-05  
0.3699025      6.223758e-05   6.223758e-05  
0.3714319      6.217107e-05   6.217107e-05  
0.3729613      6.210476e-05   6.210476e-05  
0.3744944      6.203848e-05   6.203848e-05  
0.3760312      6.197223e-05   6.197223e-05  
0.3775681      6.190617e-05   6.190617e-05  
0.3791088      6.184014e-05   6.184014e-05  
0.3806494      6.17743e-05    6.17743e-05   
0.382194       6.170849e-05   6.170849e-05  
0.3837423      6.16427e-05    6.16427e-05   
0.3852907      6.157711e-05   6.157711e-05  
0.386843       6.151154e-05   6.151154e-05  
0.3883953      6.144615e-05   6.144615e-05  
0.3899516      6.138079e-05   6.138079e-05  
0.3915118      6.131546e-05   6.131546e-05  
0.393072       6.125031e-05   6.125031e-05  
0.3946363      6.118518e-05   6.118518e-05  
0.3962005      6.112024e-05   6.112024e-05  
0.3977688      6.105532e-05   6.105532e-05  
0.3993371      6.099058e-05   6.099058e-05  
0.4009095      6.092586e-05   6.092586e-05  
0.402482       6.086133e-05   6.086133e-05  
0.4040585      6.079681e-05   6.079681e-05  
0.4056351      6.073248e-05   6.073248e-05  
0.4072159      6.066817e-05   6.066817e-05  
0.4088008      6.060386e-05   6.060386e-05  
0.4103858      6.053974e-05   6.053974e-05  
0.4119751      6.047563e-05   6.047563e-05  
0.4135643      6.041171e-05   6.041171e-05  
0.4151579      6.03478e-05    6.03478e-05   
0.4167515      6.028406e-05   6.028406e-05  
0.4183494      6.022034e-05   6.022034e-05  
0.4199474      6.01568e-05    6.01568e-05   
0.4215497      6.009327e-05   6.009327e-05  
0.4231521      6.002991e-05   6.002991e-05  
0.4247589      5.996656e-05   5.996656e-05  
0.4263657      5.99034e-05    5.99034e-05   
0.427977       5.984023e-05   5.984023e-05  
0.4295929      5.977707e-05   5.977707e-05  
0.4312088      5.971409e-05   5.971409e-05  
0.4328293      5.965111e-05   5.965111e-05  
0.4344498      5.958831e-05   5.958831e-05  
0.4360749      5.95255e-05    5.95255e-05   
0.4377001      5.946288e-05   5.946288e-05  
0.4393299      5.940025e-05   5.940025e-05  
0.4409598      5.933781e-05   5.933781e-05  
0.4425944      5.927535e-05   5.927535e-05  
0.4442338      5.921289e-05   5.921289e-05  
0.4458733      5.915061e-05   5.915061e-05  
0.4475176      5.908833e-05   5.908833e-05  
0.4491619      5.902621e-05   5.902621e-05  
0.4508111      5.896409e-05   5.896409e-05  
0.4524603      5.890215e-05   5.890215e-05  
0.4541145      5.88402e-05    5.88402e-05   
0.4557687      5.877842e-05   5.877842e-05  
0.4574279      5.871663e-05   5.871663e-05  
0.4590872      5.865501e-05   5.865501e-05  
0.4607515      5.859338e-05   5.859338e-05  
0.4624159      5.853192e-05   5.853192e-05  
0.4640854      5.847045e-05   5.847045e-05  
0.4657601      5.840896e-05   5.840896e-05  
0.4674348      5.834764e-05   5.834764e-05  
0.4691149      5.828631e-05   5.828631e-05  
0.4707949      5.822515e-05   5.822515e-05  
0.4724802      5.816396e-05   5.816396e-05  
0.4741656      5.810295e-05   5.810295e-05  
0.4758564      5.804192e-05   5.804192e-05  
0.4775472      5.798106e-05   5.798106e-05  
0.4792435      5.792018e-05   5.792018e-05  
0.4809397      5.785946e-05   5.785946e-05  
0.4826416      5.779872e-05   5.779872e-05  
0.4843434      5.773815e-05   5.773815e-05  
0.4860452      5.767776e-05   5.767776e-05  
0.4877527      5.761733e-05   5.761733e-05  
0.4894602      5.755707e-05   5.755707e-05  
0.4911734      5.749678e-05   5.749678e-05  
0.4928867      5.743666e-05   5.743666e-05  
0.4946057      5.73765e-05    5.73765e-05   
0.4963247      5.731652e-05   5.731652e-05  
0.4980496      5.72565e-05    5.72565e-05   
0.4997746      5.719664e-05   5.719664e-05  
0.5015054      5.713675e-05   5.713675e-05  
0.5032363      5.707703e-05   5.707703e-05  
0.5049672      5.701748e-05   5.701748e-05  
0.5067042      5.695788e-05   5.695788e-05  
0.5084411      5.689845e-05   5.689845e-05  
0.5101842      5.683898e-05   5.683898e-05  
0.5119274      5.677967e-05   5.677967e-05  
0.5136705      5.672053e-05   5.672053e-05  
0.5154199      5.666134e-05   5.666134e-05  
0.5171692      5.660232e-05   5.660232e-05  
0.518925       5.654325e-05   5.654325e-05  
0.5206807      5.648434e-05   5.648434e-05  
0.5224365      5.64256e-05    5.64256e-05   
0.5241987      5.636681e-05   5.636681e-05  
0.5259609      5.630818e-05   5.630818e-05  
0.5277232      5.624971e-05   5.624971e-05  
0.529492       5.619119e-05   5.619119e-05  
0.5312608      5.613283e-05   5.613283e-05  
0.5330363      5.607442e-05   5.607442e-05  
0.5348119      5.601616e-05   5.601616e-05  
0.5365874      5.595807e-05   5.595807e-05  
0.5383698      5.589992e-05   5.589992e-05  
0.5401521      5.584193e-05   5.584193e-05  
0.5419345      5.578409e-05   5.578409e-05  
0.5437238      5.57262e-05    5.57262e-05   
0.5455131      5.566846e-05   5.566846e-05  
0.5473095      5.561066e-05   5.561066e-05  
0.5491059      5.555302e-05   5.555302e-05  
0.5509023      5.549553e-05   5.549553e-05  
0.5527059      5.543798e-05   5.543798e-05  
0.5545095      5.538059e-05   5.538059e-05  
0.5563131      5.532335e-05   5.532335e-05  
0.5581241      5.526604e-05   5.526604e-05  
0.559935       5.520889e-05   5.520889e-05  
0.561746       5.515189e-05   5.515189e-05  
0.5635645      5.509482e-05   5.509482e-05  
0.565383       5.50379e-05    5.50379e-05   
0.5672014      5.498114e-05   5.498114e-05  
0.5690276      5.49243e-05    5.49243e-05   
0.5708537      5.486762e-05   5.486762e-05  
0.5726799      5.481109e-05   5.481109e-05  
0.5745061      5.475471e-05   5.475471e-05  
0.5763401      5.469825e-05   5.469825e-05  
0.5781741      5.464195e-05   5.464195e-05  
0.5800081      5.45858e-05    5.45858e-05   
0.5818502      5.452955e-05   5.452955e-05  
0.5836923      5.447346e-05   5.447346e-05  
0.5855343      5.441753e-05   5.441753e-05  
0.5873846      5.43615e-05    5.43615e-05   
0.5892349      5.430562e-05   5.430562e-05  
0.5910852      5.424989e-05   5.424989e-05  
0.5929355      5.419432e-05   5.419432e-05  
0.5947943      5.413864e-05   5.413864e-05  
0.596653       5.408312e-05   5.408312e-05  
0.5985117      5.402775e-05   5.402775e-05  
0.6003705      5.397253e-05   5.397253e-05  
0.6022379      5.39172e-05    5.39172e-05   
0.6041053      5.386203e-05   5.386203e-05  
0.6059728      5.3807e-05     5.3807e-05    
0.6078402      5.375212e-05   5.375212e-05  
0.6097166      5.369713e-05   5.369713e-05  
0.6115929      5.364229e-05   5.364229e-05  
0.6134693      5.35876e-05    5.35876e-05   
0.6153456      5.353305e-05   5.353305e-05  
0.6172312      5.347839e-05   5.347839e-05  
0.6191168      5.342388e-05   5.342388e-05  
0.6210023      5.336951e-05   5.336951e-05  
0.6228879      5.331529e-05   5.331529e-05  
0.6247829      5.326094e-05   5.326094e-05  
0.626678       5.320674e-05   5.320674e-05  
0.628573       5.315269e-05   5.315269e-05  
0.630468       5.309878e-05   5.309878e-05  
0.6323728      5.304474e-05   5.304474e-05  
0.6342776      5.299085e-05   5.299085e-05  
0.6361824      5.29371e-05    5.29371e-05   
0.6380872      5.28835e-05    5.28835e-05   
0.6399921      5.283004e-05   5.283004e-05  
0.641907       5.277644e-05   5.277644e-05  
0.6438219      5.272298e-05   5.272298e-05  
0.6457369      5.266967e-05   5.266967e-05  
0.6476518      5.26165e-05    5.26165e-05   
0.6495772      5.256318e-05   5.256318e-05  
0.6515026      5.251e-05      5.251e-05     
0.653428       5.245697e-05   5.245697e-05  
0.6553534      5.240408e-05   5.240408e-05  
0.6572788      5.235133e-05   5.235133e-05  
0.6592151      5.229842e-05   5.229842e-05  
0.6611513      5.224566e-05   5.224566e-05  
0.6630876      5.219304e-05   5.219304e-05  
0.6650239      5.214055e-05   5.214055e-05  
0.6669714      5.20879e-05    5.20879e-05   
0.668919       5.20354e-05    5.20354e-05   
0.6708665      5.198303e-05   5.198303e-05  
0.672814       5.19308e-05    5.19308e-05   
0.6747616      5.187871e-05   5.187871e-05  
0.6767209      5.182644e-05   5.182644e-05  
0.6786801      5.177432e-05   5.177432e-05  
0.6806394      5.172233e-05   5.172233e-05  
0.6825987      5.167048e-05   5.167048e-05  
0.6845579      5.161877e-05   5.161877e-05  
0.6865294      5.156687e-05   5.156687e-05  
0.6885009      5.151511e-05   5.151511e-05  
0.6904725      5.146349e-05   5.146349e-05  
0.692444       5.1412e-05     5.1412e-05    
0.6944155      5.136065e-05   5.136065e-05  
0.696387       5.130944e-05   5.130944e-05  
0.6983714      5.125803e-05   5.125803e-05  
0.7003558      5.120675e-05   5.120675e-05  
0.7023402      5.11556e-05    5.11556e-05   
0.7043246      5.11046e-05    5.11046e-05   
0.706309       5.105372e-05   5.105372e-05  
0.7082934      5.100298e-05   5.100298e-05  
0.7102914      5.095203e-05   5.095203e-05  
0.7122894      5.090121e-05   5.090121e-05  
0.7142874      5.085052e-05   5.085052e-05  
0.7162854      5.079997e-05   5.079997e-05  
0.7182833      5.074955e-05   5.074955e-05  
0.7202813      5.069926e-05   5.069926e-05  
0.7222937      5.064874e-05   5.064874e-05  
0.7243061      5.059836e-05   5.059836e-05  
0.7263184      5.05481e-05    5.05481e-05   
0.7283308      5.049798e-05   5.049798e-05  
0.7303432      5.044799e-05   5.044799e-05  
0.7323555      5.039813e-05   5.039813e-05  
0.7343679      5.03484e-05    5.03484e-05   
0.7363956      5.029842e-05   5.029842e-05  
0.7384233      5.024857e-05   5.024857e-05  
0.7404511      5.019885e-05   5.019885e-05  
0.7424788      5.014926e-05   5.014926e-05  
0.7445065      5.009979e-05   5.009979e-05  
0.7465342      5.005046e-05   5.005046e-05  
0.748562       5.000126e-05   5.000126e-05  
0.7506062      4.995178e-05   4.995178e-05  
0.7526504      4.990243e-05   4.990243e-05  
0.7546946      4.985321e-05   4.985321e-05  
0.7567388      4.980412e-05   4.980412e-05  
0.758783       4.975515e-05   4.975515e-05  
0.7608272      4.970631e-05   4.970631e-05  
0.7628714      4.96576e-05    4.96576e-05   
0.7649157      4.960901e-05   4.960901e-05  
0.7669778      4.956013e-05   4.956013e-05  
0.7690399      4.951137e-05   4.951137e-05  
0.7711021      4.946273e-05   4.946273e-05  
0.7731642      4.941423e-05   4.941423e-05  
0.7752264      4.936584e-05   4.936584e-05  
0.7772885      4.931758e-05   4.931758e-05  
0.7793507      4.926945e-05   4.926945e-05  
0.7814128      4.922143e-05   4.922143e-05  
0.783475       4.917355e-05   4.917355e-05  
0.7855371      4.912578e-05   4.912578e-05  
0.7875992      4.907813e-05   4.907813e-05  
0.7896614      4.903061e-05   4.903061e-05  
0.7917235      4.898321e-05   4.898321e-05  
0.7938063      4.893545e-05   4.893545e-05  
0.7958891      4.888782e-05   4.888782e-05  
0.7979718      4.884031e-05   4.884031e-05  
0.8000546      4.879292e-05   4.879292e-05  
0.8021373      4.874565e-05   4.874565e-05  
0.8042201      4.86985e-05    4.86985e-05   
0.8063029      4.865147e-05   4.865147e-05  
0.8083856      4.860456e-05   4.860456e-05  
0.8104684      4.855777e-05   4.855777e-05  
0.8125743      4.851058e-05   4.851058e-05  
0.8146802      4.846351e-05   4.846351e-05  
0.8167861      4.841656e-05   4.841656e-05  
0.818892       4.836973e-05   4.836973e-05  
0.8209979      4.832301e-05   4.832301e-05  
0.8231038      4.827642e-05   4.827642e-05  
0.8252098      4.822994e-05   4.822994e-05  
0.8273157      4.818359e-05   4.818359e-05  
0.8294216      4.813734e-05   4.813734e-05  
0.8315275      4.809122e-05   4.809122e-05  
0.8336334      4.804521e-05   4.804521e-05  
0.8357393      4.799931e-05   4.799931e-05  
0.8378452      4.795353e-05   4.795353e-05  
0.8399511      4.790787e-05   4.790787e-05  
0.8420851      4.786171e-05   4.786171e-05  
0.8442191      4.781567e-05   4.781567e-05  
0.8463531      4.776975e-05   4.776975e-05  
0.848487       4.772394e-05   4.772394e-05  
0.850621       4.767824e-05   4.767824e-05  
0.852755       4.763267e-05   4.763267e-05  
0.854889       4.75872e-05    4.75872e-05   
0.857023       4.754185e-05   4.754185e-05  
0.859157       4.749661e-05   4.749661e-05  
0.861291       4.745149e-05   4.745149e-05  
0.8634249      4.740648e-05   4.740648e-05  
0.8655589      4.736158e-05   4.736158e-05  
0.8676929      4.731679e-05   4.731679e-05  
0.8698269      4.727211e-05   4.727211e-05  
0.8719609      4.722754e-05   4.722754e-05  
0.8740949      4.718309e-05   4.718309e-05  
0.8762656      4.713797e-05   4.713797e-05  
0.8784364      4.709298e-05   4.709298e-05  
0.8806072      4.704809e-05   4.704809e-05  
0.882778       4.700332e-05   4.700332e-05  
0.8849488      4.695866e-05   4.695866e-05  
0.8871195      4.691411e-05   4.691411e-05  
0.8892903      4.686967e-05   4.686967e-05  
0.8914611      4.682534e-05   4.682534e-05  
0.8936319      4.678113e-05   4.678113e-05  
0.8958026      4.673702e-05   4.673702e-05  
0.8979734      4.669302e-05   4.669302e-05  
0.9001442      4.664913e-05   4.664913e-05  
0.902315       4.660534e-05   4.660534e-05  
0.9044858      4.656167e-05   4.656167e-05  
0.9066565      4.65181e-05    4.65181e-05   
0.9088273      4.647464e-05   4.647464e-05  
0.9109981      4.643128e-05   4.643128e-05  
0.9131689      4.638804e-05   4.638804e-05  
0.9153397      4.634489e-05   4.634489e-05  
0.9175104      4.630185e-05   4.630185e-05  
0.9196812      4.625892e-05   4.625892e-05  
0.921852       4.621609e-05   4.621609e-05  
0.9240228      4.617337e-05   4.617337e-05  
0.9261935      4.613075e-05   4.613075e-05  
0.9283643      4.608823e-05   4.608823e-05  
0.9305351      4.604581e-05   4.604581e-05  
0.9327059      4.60035e-05    4.60035e-05   
0.9348767      4.596129e-05   4.596129e-05  
0.9370474      4.591918e-05   4.591918e-05  
0.9392182      4.587717e-05   4.587717e-05  
0.941389       4.583527e-05   4.583527e-05  
0.9435598      4.579346e-05   4.579346e-05  
0.9457305      4.575175e-05   4.575175e-05  
0.9479013      4.571015e-05   4.571015e-05  
0.9500721      4.566864e-05   4.566864e-05  
0.9522429      4.562723e-05   4.562723e-05  
0.9544137      4.558592e-05   4.558592e-05  
0.9565844      4.554471e-05   4.554471e-05  
0.9587552      4.55036e-05    4.55036e-05   
0.960926       4.546258e-05   4.546258e-05  
0.9630968      4.542166e-05   4.542166e-05  
0.9652675      4.538084e-05   4.538084e-05  
0.9674383      4.534011e-05   4.534011e-05  
0.9696091      4.529948e-05   4.529948e-05  
0.9717799      4.525894e-05   4.525894e-05  
0.9739507      4.52185e-05    4.52185e-05   
0.9761214      4.517816e-05   4.517816e-05  
0.9782922      4.513791e-05   4.513791e-05  
0.980463       4.509775e-05   4.509775e-05  
0.9826338      4.505769e-05   4.505769e-05  
0.9848046      4.501772e-05   4.501772e-05  
0.9869753      4.497785e-05   4.497785e-05  
0.9891461      4.493806e-05   4.493806e-05  