# Probe 0 (0 0 0)
# Probe 1 (0 0.011 0)
# Time         0              1             
0              0              0             
1.199999e-06   0              0             
2.639996e-06   3.19686e-201   2.604698e-143 
4.367991e-06   6.544067e-187  3.187584e-142 
6.441582e-06   4.289341e-185  4.665881e-141 
8.92989e-06    2.833647e-183  3.790198e-139 
1.191586e-05   8.7543e-181    4.202696e-137 
1.549901e-05   3.540255e-178  4.075264e-135 
1.97988e-05    1.247246e-175  3.473902e-133 
2.495853e-05   3.856063e-173  2.670678e-131 
3.115017e-05   1.072416e-170  1.891261e-129 
3.858013e-05   2.736965e-168  1.254141e-127 
4.749602e-05   6.512169e-166  7.89308e-126  
5.819505e-05   1.463785e-163  4.766484e-124 
7.103374e-05   3.142061e-161  2.786198e-122 
8.644002e-05   6.498119e-159  1.58767e-120  
0.0001049275   1.304158e-156  8.86985e-119  
0.0001271124   2.554881e-154  4.880105e-117 
0.0001537338   4.90915e-152   2.65274e-115  
0.0001856788   9.289872e-150  1.427369e-113 
0.0002240123   1.736118e-147  7.604412e-112 
0.0002700107   3.208539e-145  4.000967e-110 
0.0003252078   5.860437e-143  2.06393e-108  
0.0003914421   1.053026e-140  1.026388e-106 
0.0004709212   1.83558e-138   4.827654e-105 
0.0005662961   3.05756e-136   2.187225e-103 
0.0006807395   4.970072e-134  9.67113e-102  
0.0008180652   8.04444e-132   4.272977e-100 
0.000982838    1.336028e-129  1.937069e-98  
0.001176559    2.127102e-127  8.547098e-97  
0.001400359    3.020408e-125  3.3808e-95    
0.00165556     3.580849e-123  1.143131e-93  
0.001943267    3.41669e-121   3.255764e-92  
0.002264392    2.600875e-119  7.810823e-91  
0.002605149    1.295121e-117  1.396701e-89  
0.002947191    3.473597e-116  1.647717e-88  
0.003290175    5.709508e-115  1.39109e-87   
0.003633986    6.640213e-114  9.145041e-87  
0.003978392    5.969038e-113  4.974971e-86  
0.004323394    4.401508e-112  2.336565e-85  
0.004668995    2.774347e-111  9.753576e-85  
0.005015197    1.538804e-110  3.693722e-84  
0.005362124    7.674761e-110  1.288936e-83  
0.005709656    3.494508e-109  4.189828e-83  
0.006057919    1.471409e-108  1.280672e-82  
0.006406916    5.785336e-108  3.707467e-82  
0.006756772    2.141689e-107  1.022888e-81  
0.007107494    7.513165e-107  2.702492e-81  
0.007459085    2.510437e-106  6.864756e-81  
0.007811675    8.029818e-106  1.682997e-80  
0.00816527     2.467435e-105  3.99419e-80   
0.00851975     7.304391e-105  9.196586e-80  
0.008875247    2.089074e-104  2.059677e-79  
0.009231766    5.787545e-104  4.49589e-79   
0.009589315    1.556551e-103  9.581898e-79  
0.0099479      4.072816e-103  1.997103e-78  
0.01030753     1.038722e-102  4.076313e-78  
0.0106682      2.586101e-102  8.157968e-78  
0.01102993     6.293569e-102  1.602585e-77  
0.01139286     1.499452e-101  3.094006e-77  
0.01175685     3.499926e-101  5.874255e-77  
0.01212205     8.01508e-101   1.09794e-76   
0.01248848     1.802508e-100  2.02184e-76   
0.01285599     3.982279e-100  3.670314e-76  
0.01322461     8.649894e-100  6.573107e-76  
0.01359446     1.849169e-99   1.162237e-75  
0.01396543     3.892174e-99   2.029611e-75  
0.01433752     8.071788e-99   3.502454e-75  
0.01471073     1.650402e-98   5.976104e-75  
0.01508508     3.328618e-98   1.00869e-74   
0.01546058     6.6261e-98     1.68497e-74   
0.01583722     1.302527e-97   2.78681e-74   
0.01621501     2.529976e-97   4.565449e-74  
0.01659398     4.858041e-97   7.411261e-74  
0.01697396     9.222189e-97   1.192352e-73  
0.01735498     1.731576e-96   1.901811e-73  
0.01773704     3.216894e-96   3.008313e-73  
0.01812013     5.915031e-96   4.720689e-73  
0.01850428     1.076846e-95   7.35083e-73   
0.01888948     1.941806e-95   1.136126e-72  
0.01927575     3.469793e-95   1.743327e-72  
0.01966308     6.145638e-95   2.656368e-72  
0.02005148     1.079203e-94   4.020128e-72  
0.02044082     1.878642e-94   6.042892e-72  
0.02083123     3.24358e-94    9.025344e-72  
0.02122259     5.554073e-94   1.339424e-71  
0.02161504     9.436788e-94   1.975878e-71  
0.02200844     1.590892e-93   2.897369e-71  
0.02240279     2.662144e-93   4.224071e-71  
0.0227981      4.423422e-93   6.123791e-71  
0.02319437     7.300254e-93   8.829619e-71  
0.02359161     1.196864e-92   1.266372e-70  
0.02398982     1.949527e-92   1.806934e-70  
0.024389       3.155601e-92   2.565306e-70  
0.02478917     5.076656e-92   3.624112e-70  
0.02519016     8.116628e-92   5.094671e-70  
0.02559215     1.28994e-91    7.128326e-70  
0.02599496     2.03751e-91    9.926705e-70  
0.02639878     3.19961e-91    1.376178e-69  
0.02680343     4.994499e-91   1.89927e-69   
0.0272091      7.751979e-91   2.61004e-69   
0.02761562     1.196329e-90   3.571392e-69  
0.02802298     1.835992e-90   4.866296e-69  
0.0284312      2.802592e-90   6.6035e-69    
0.02884029     4.256022e-90   8.924924e-69  
0.02925023     6.43095e-90    1.201534e-68  
0.02966104     9.670464e-90   1.61143e-68   
0.03007255     1.447065e-89   2.152927e-68  
0.03048494     2.155479e-89   2.866094e-68  
0.0308982      3.196665e-89   3.802279e-68  
0.03131217     4.719765e-89   5.026559e-68  
0.03172703     6.93961e-89    6.62315e-68   
0.03214259     1.016087e-88   8.697609e-68  
0.03255888     1.481671e-88   1.138418e-67  
0.03297606     2.152297e-88   1.485423e-67  
0.03339396     3.114126e-88   1.932079e-67  
0.03381258     4.488184e-88   2.505273e-67  
0.03423193     6.443646e-88   3.238762e-67  
0.03465202     9.216094e-88   5.839517e-67  
0.03507283     1.313246e-87   7.581364e-67  
0.03549438     1.864803e-87   9.814958e-67  
0.03591667     2.639365e-87   1.267175e-66  
0.0363397      3.723857e-87   1.631663e-66  
0.03676347     5.237604e-87   2.095624e-66  
0.03718799     7.34366e-87    2.68495e-66   
0.03761307     1.026343e-86   3.431662e-66  
0.03803891     1.430076e-86   4.376447e-66  
0.0384655      1.98673e-86    5.569882e-66  
0.03889285     2.75189e-86    7.075146e-66  
0.03932077     3.799723e-86   8.970103e-66  
0.03974945     5.231206e-86   1.135356e-65  
0.0401789      7.181686e-86   1.434791e-65  
0.04060893     9.831636e-86   1.810378e-65  
0.04103973     1.342496e-85   2.281188e-65  
0.04147111     1.828326e-85   2.870493e-65  
0.04190307     2.483416e-85   3.607383e-65  
0.04233582     3.36493e-85    4.528385e-65  
0.04276915     4.547754e-85   5.677896e-65  
0.04320307     6.130898e-85   7.111113e-65  
0.04363758     8.244523e-85   8.896091e-65  
0.04407269     1.105942e-84   1.111669e-64  
0.04450859     1.480102e-84   1.387739e-64  
0.04494509     1.976074e-84   1.730387e-64  
0.04538218     2.631982e-84   2.155113e-64  
0.04581988     3.497411e-84   2.680852e-64  
0.04625818     4.636804e-84   3.330693e-64  
0.04669709     6.133527e-84   4.132731e-64  
0.0471366      8.095469e-84   5.121079e-64  
0.04757672     1.066147e-83   6.337085e-64  
0.04801745     1.401031e-83   7.830766e-64  
0.0484588      1.837147e-83   9.662506e-64  
0.04890076     2.403886e-83   1.19051e-63   
0.04934334     3.138891e-83   1.464612e-63  
0.04978653     4.090524e-83   1.799077e-63  
0.05023035     5.320682e-83   2.206512e-63  
0.05067479     6.908402e-83   2.701988e-63  
0.05111986     8.9545e-83     3.303492e-63  
0.05156534     1.158619e-82   4.032064e-63  
0.05201145     1.49679e-82    4.913387e-63  
0.0524582      1.930726e-82   5.977638e-63  
0.05290557     2.486763e-82   7.260535e-63  
0.05335337     3.197853e-82   8.803477e-63  
0.05380181     4.106302e-82   1.065672e-62  
0.05425067     5.264561e-82   1.287758e-62  
0.05470017     6.739706e-82   1.553551e-62  
0.0551501      8.614906e-82   1.870947e-62  
0.05560067     1.099637e-81   2.249502e-62  
0.05605167     1.401482e-81   2.700043e-62  
0.05650332     1.783673e-81   3.235648e-62  
0.05695562     2.266948e-81   3.871402e-62  
0.05740835     2.876941e-81   4.624502e-62  
0.05786174     3.646213e-81   5.515655e-62  
0.05831556     4.614747e-81   6.568047e-62  
0.05877004     5.833587e-81   7.809634e-62  
0.05922497     7.365467e-81   9.271604e-62  
0.05968055     9.290094e-81   1.099146e-61  
0.06013657     1.170478e-80   1.301084e-61  
0.06059326     1.473282e-80   1.53798e-61   
0.06105039     1.852411e-80   1.815375e-61  
0.06150797     2.326612e-80   2.139742e-61  
0.06196622     2.919351e-80   2.518732e-61  
0.06242491     3.65908e-80    2.96076e-61   
0.06288406     4.581146e-80   3.475638e-61  
0.06334388     5.729715e-80   4.07492e-61   
0.06380415     7.15796e-80    4.771255e-61  
0.06426488     8.931793e-80   5.579353e-61  
0.06472606     1.113229e-79   6.516001e-61  
0.06518769     1.385889e-79   7.60033e-61   
0.06564979     1.723344e-79   8.854128e-61  
0.06611234     2.140527e-79   1.030218e-60  
0.06657534     2.655653e-79   1.197265e-60  
0.06703881     3.291007e-79   1.389752e-60  
0.06750274     4.073682e-79   1.611296e-60  
0.06796713     5.036712e-79   1.865971e-60  
0.06843199     6.220286e-79   2.158403e-60  
0.06889731     7.67332e-79    2.493826e-60  
0.06936309     9.455018e-79   2.878161e-60  
0.06982934     1.163696e-78   3.318096e-60  
0.07029606     1.430565e-78   3.821203e-60  
0.07076325     1.756557e-78   4.396023e-60  
0.07123091     2.154225e-78   5.05219e-60   
0.07169903     2.638723e-78   5.800547e-60  
0.0721674      3.227847e-78   6.652854e-60  
0.07263624     3.943611e-78   7.623214e-60  
0.07310555     4.811991e-78   8.727127e-60  
0.07357534     5.864062e-78   9.982052e-60  
0.07404561     7.136977e-78   1.140762e-59  
0.07451635     8.67495e-78    1.302592e-59  
0.07498734     1.052965e-77   1.486084e-59  
0.0754588      1.276432e-77   1.694116e-59  
0.07593075     1.545327e-77   1.929836e-59  
0.07640318     1.868472e-77   2.196787e-59  
0.07687584     2.256089e-77   2.498785e-59  
0.077349       2.720691e-77   2.840425e-59  
0.07782264     3.276995e-77   3.226718e-59  
0.07829652     3.941942e-77   3.663062e-59  
0.07877089     4.73616e-77    4.15597e-59   
0.07924575     5.683683e-77   4.71255e-59   
0.07972086     6.812248e-77   5.340429e-59  
0.08019646     8.155675e-77   6.048813e-59  
0.0806723      9.752402e-77   6.847279e-59  
0.08114863     1.164902e-76   7.747378e-59  
0.08162522     1.38982e-76    8.761131e-59  
0.08210205     1.656262e-76   9.902468e-59  
0.08257937     1.971741e-76   1.11877e-58   
0.08305695     2.344724e-76   1.263367e-58  
0.08353502     2.785496e-76   1.42608e-58   
0.08401334     3.305625e-76   1.609016e-58  
0.08449191     3.918773e-76   1.814613e-58  
0.08497099     4.641215e-76   2.045737e-58  
0.08545031     5.491129e-76   2.305336e-58  
0.08592989     6.489931e-76   2.596804e-58  
0.08640996     7.663214e-76   2.924106e-58  
0.0868903      9.039465e-76   3.291319e-58  
0.08737088     1.065227e-75   3.70315e-58   
0.08785197     1.254167e-75   4.165094e-58  
0.08833332     1.475189e-75   4.682787e-58  
0.08881491     1.73348e-75    5.262708e-58  
0.08929702     2.035185e-75   5.912436e-58  
0.08977939     2.387045e-75   6.639723e-58  
0.09026201     2.797e-75      7.453499e-58  
0.09074514     3.274501e-75   8.36414e-58   
0.09122853     3.829932e-75   9.382208e-58  
0.09171217     4.475464e-75   1.051981e-57  
0.09219608     5.225096e-75   1.179038e-57  
0.0926805      6.095376e-75   1.320956e-57  
0.09316518     7.104293e-75   1.479318e-57  
0.09365012     8.272924e-75   1.655943e-57  
0.09413531     9.625321e-75   1.852846e-57  
0.09462103     1.118992e-74   2.072385e-57  
0.09510701     1.299753e-74   2.316947e-57  
0.09559325     1.508425e-74   2.58927e-57   
0.09608002     1.749276e-74   2.892538e-57  
0.09656704     2.026934e-74   3.22993e-57   
0.09705433     2.346793e-74   3.605097e-57  
0.09754188     2.714978e-74   4.022057e-57  
0.09802996     3.138732e-74   4.485508e-57  
0.0985183      3.625863e-74   5.00012e-57   
0.09900691     4.185479e-74   5.571251e-57  
0.09949605     4.828262e-74   6.205148e-57  
0.09998545     5.56564e-74    6.907977e-57  
0.1004751      6.41096e-74    7.686821e-57  
0.1009653      7.380031e-74   8.54994e-57   
0.1014558      8.489776e-74   9.505442e-57  
0.1019468      9.760661e-74   1.056324e-56  
0.1024381      1.121458e-73   1.173303e-56  
0.1029296      1.287697e-73   1.302592e-56  
0.1034217      1.477787e-73   1.445491e-56  
0.1039141      1.694892e-73   1.603269e-56  
0.1044067      1.942708e-73   1.77738e-56   
0.1048999      2.225596e-73   2.070106e-56  
0.1053933      2.548179e-73   2.300966e-56  
0.1058873      2.916051e-73   2.556475e-56  
0.1063815      3.335158e-73   2.838974e-56  
0.1068761      3.812417e-73   3.151153e-56  
0.1073712      4.355932e-73   3.496172e-56  
0.1078665      4.974203e-73   3.877108e-56  
0.1083621      5.677056e-73   4.297513e-56  
0.1088583      6.47604e-73    4.761543e-56  
0.1093548      7.383355e-73   5.273235e-56  
0.1098518      8.413734e-73   5.837583e-56  
0.1103491      9.582545e-73   6.459416e-56  
0.1108469      1.090844e-72   7.144715e-56  
0.1113451      1.241128e-72   7.899243e-56  
0.1118435      1.411405e-72   8.729647e-56  
0.1123421      1.604226e-72   9.643207e-56  
0.1128414      1.822559e-72   1.064846e-55  
0.1133409      2.069521e-72   1.175363e-55  
0.1138407      2.348709e-72   1.296816e-55  
0.1143411      2.664333e-72   1.43032e-55   
0.1148417      3.020813e-72   1.576939e-55  
0.115343       3.423541e-72   1.737995e-55  
0.1158445      3.878104e-72   1.914753e-55  
0.1163463      4.390912e-72   2.108673e-55  
0.1168486      4.969512e-72   2.32148e-55   
0.1173513      5.621707e-72   2.554801e-55  
0.1178545      6.356974e-72   2.810685e-55  
0.118358       7.185078e-72   3.091067e-55  
0.1188618      8.117328e-72   3.398198e-55  
0.1193662      9.167035e-72   3.734723e-55  
0.1198708      1.034803e-71   4.103138e-55  
0.1203761      1.167706e-71   4.506585e-55  
0.1208816      1.317139e-71   4.948019e-55  
0.1213874      1.485059e-71   5.430879e-55  
0.1218938      1.673762e-71   5.959232e-55  
0.1224005      1.885628e-71   6.536904e-55  
0.1229075      2.123403e-71   7.168357e-55  
0.1234151      2.390291e-71   7.858835e-55  
0.123923       2.689549e-71   8.613234e-55  
0.1244314      3.025175e-71   9.437731e-55  
0.1249402      3.401236e-71   1.033806e-54  
0.1254492      3.822438e-71   1.132089e-54  
0.1259589      4.294318e-71   1.239413e-54  
0.1264688      4.822491e-71   1.356512e-54  
0.1269794      5.413778e-71   1.484319e-54  
0.1274902      6.075006e-71   1.623698e-54  
0.1280013      6.814092e-71   1.775655e-54  
0.1285131      7.640457e-71   1.941381e-54  
0.1290251      8.563524e-71   2.121971e-54  
0.1295377      9.594435e-71   2.318826e-54  
0.1300507      1.074461e-70   2.533231e-54  
0.1305639      1.202701e-70   2.76668e-54   
0.1310778      1.345747e-70   3.020945e-54  
0.1315919      1.505183e-70   3.297636e-54  
0.1321064      1.682853e-70   3.598633e-54  
0.1326215      1.880882e-70   3.926164e-54  
0.1331368      2.1014e-70     4.282238e-54  
0.1336525      2.346865e-70   4.669209e-54  
0.1341688      2.620129e-70   5.089895e-54  
0.1346854      2.924037e-70   5.546833e-54  
0.1352027      3.262139e-70   6.043301e-54  
0.1357202      3.637957e-70   6.582245e-54  
0.136238       4.055565e-70   7.167125e-54  
0.1367565      4.519734e-70   7.802061e-54  
0.1372753      5.035169e-70   8.490734e-54  
0.1377944      5.60716e-70    9.23746e-54   
0.1383141      6.241996e-70   1.004738e-53  
0.1388341      6.945986e-70   1.092504e-53  
0.1393548      7.727145e-70   1.187639e-53  
0.1398757      8.593186e-70   1.290667e-53  
0.140397       9.5531e-70     1.402207e-53  
0.1409189      1.061723e-69   1.523002e-53  
0.1414412      1.179565e-69   1.653704e-53  
0.1419637      1.310018e-69   1.795086e-53  
0.1424869      1.454468e-69   1.948073e-53  
0.1430104      1.61427e-69    2.113482e-53  
0.1435343      1.79098e-69    2.292274e-53  
0.1440587      1.986412e-69   2.485597e-53  
0.1445835      2.202335e-69   2.694452e-53  
0.1451087      2.440855e-69   2.920025e-53  
0.1456341      2.704271e-69   3.163584e-53  
0.1461602      2.995256e-69   3.426655e-53  
0.1466866      3.316348e-69   3.710549e-53  
0.1472133      3.670498e-69   4.016829e-53  
0.1477407      4.061206e-69   4.347378e-53  
0.1482684      4.491881e-69   4.703812e-53  
0.1487965      4.966433e-69   5.088056e-53  
0.1493252      5.489429e-69   5.502444e-53  
0.1498542      6.065192e-69   5.948965e-53  
0.1503836      6.698787e-69   6.429991e-53  
0.1509136      7.396145e-69   6.948394e-53  
0.1514439      8.162947e-69   7.506598e-53  
0.1519749      9.006287e-69   8.107882e-53  
0.1525063      9.933263e-69   8.755e-53     
0.1530383      1.095276e-68   9.451707e-53  
0.1535706      1.207306e-68   1.020114e-52  
0.1541033      1.330374e-68   1.100708e-52  
0.1546367      1.465617e-68   1.187411e-52  
0.1551704      1.614106e-68   1.280606e-52  
0.1557047      1.77719e-68    1.380819e-52  
0.1562394      1.956128e-68   1.488487e-52  
0.1567745      2.152407e-68   1.604133e-52  
0.1573102      2.367797e-68   1.728401e-52  
0.1578462      2.60392e-68    1.861818e-52  
0.1583826      2.862697e-68   2.005021e-52  
0.1589197      3.146414e-68   2.158794e-52  
0.1594572      3.457182e-68   2.323775e-52  
0.1599949      3.797518e-68   2.500739e-52  
0.1605331      4.170117e-68   2.690505e-52  
0.1610719      4.578189e-68   2.894083e-52  
0.161611       5.024673e-68   3.112285e-52  
0.1621505      5.513046e-68   3.346103e-52  
0.1626907      6.0474e-68     3.596756e-52  
0.1632313      6.631471e-68   3.86522e-52   
0.1637722      7.269795e-68   4.152688e-52  
0.1643138      7.967632e-68   4.460636e-52  
0.1648557      8.729749e-68   4.79023e-52   
0.1653984      9.562484e-68   5.143138e-52  
0.1659414      1.047161e-67   5.520686e-52  
0.1664848      1.146396e-67   5.924508e-52  
0.1670288      1.254762e-67   6.356627e-52  
0.1675732      1.372986e-67   6.818633e-52  
0.168118       1.501932e-67   7.312473e-52  
0.1686632      1.642538e-67   7.840215e-52  
0.169209       1.79592e-67    8.404432e-52  
0.1697552      1.963082e-67   9.007116e-52  
0.1703018      2.145168e-67   9.650731e-52  
0.1708491      2.343542e-67   1.033836e-51  
0.1713968      2.559447e-67   1.107236e-51  
0.1719448      2.794348e-67   1.185568e-51  
0.1724935      3.050046e-67   1.269199e-51  
0.1730426      3.328135e-67   1.358409e-51  
0.1735921      3.630547e-67   1.453545e-51  
0.1741419      3.959349e-67   1.554978e-51  
0.1746925      4.317028e-67   1.663173e-51  
0.1752435      4.70576e-67    1.778481e-51  
0.1757948      5.128148e-67   1.901345e-51  
0.1763464      5.587031e-67   2.03223e-51   
0.1768989      6.085752e-67   2.171732e-51  
0.1774516      6.627164e-67   2.320296e-51  
0.1780048      7.214811e-67   2.655709e-51  
0.1785583      7.852275e-67   2.84691e-51   
0.1791126      8.543974e-67   3.051373e-51  
0.1796673      9.294002e-67   3.269829e-51  
0.1802223      1.010706e-66   3.503187e-51  
0.1807777      1.09884e-66    3.752411e-51  
0.1813335      1.194363e-66   4.01852e-51   
0.1818896      1.297873e-66   4.302596e-51  
0.1824466      1.410118e-66   4.606011e-51  
0.1830039      1.531704e-66   4.929803e-51  
0.1835615      1.663374e-66   5.275277e-51  
0.1841196      1.805908e-66   5.643817e-51  
0.184678       1.960155e-66   6.036895e-51  
0.1852372      2.12714e-66    6.45636e-51   
0.1857968      2.307745e-66   6.903602e-51  
0.1863568      2.503062e-66   7.380369e-51  
0.1869172      2.714285e-66   7.888511e-51  
0.1874779      2.942689e-66   8.429975e-51  
0.188039       3.189616e-66   9.006833e-51  
0.188601       3.456697e-66   9.621726e-51  
0.1891633      3.74532e-66    1.027661e-50  
0.1897259      4.057161e-66   1.097396e-50  
0.190289       4.394026e-66   1.171642e-50  
0.1908529      4.758126e-66   1.250738e-50  
0.1914171      5.15117e-66    1.33493e-50   
0.1919818      5.575252e-66   1.424534e-50  
0.1925468      6.032764e-66   1.51988e-50   
0.1931123      6.526309e-66   1.621325e-50  
0.1936785      7.059171e-66   1.729322e-50  
0.1942452      7.633974e-66   1.844199e-50  
0.1948122      8.253706e-66   1.966375e-50  
0.1953796      8.921665e-66   2.096291e-50  
0.1959475      9.64147e-66    2.234413e-50  
0.1965157      1.041694e-65   2.381235e-50  
0.1970843      1.125211e-65   2.537281e-50  
0.1976534      1.215147e-65   2.703104e-50  
0.1982228      1.311984e-65   2.879292e-50  
0.1987927      1.416242e-65   3.066471e-50  
0.1993629      1.528496e-65   3.265302e-50  
0.199934       1.649417e-65   3.476637e-50  
0.2005055      1.779535e-65   3.701071e-50  
0.2010774      1.919496e-65   3.939379e-50  
0.2016496      2.069986e-65   4.192375e-50  
0.2022224      2.231741e-65   4.460914e-50  
0.2027955      2.405548e-65   4.745901e-50  
0.203369       2.592259e-65   5.04829e-50   
0.2039429      2.792781e-65   5.369083e-50  
0.2045173      3.008099e-65   5.70934e-50   
0.2050921      3.239273e-65   6.070177e-50  
0.2056672      3.487493e-65   6.452772e-50  
0.2062429      3.754033e-65   6.858368e-50  
0.2068189      4.04024e-65    7.288282e-50  
0.2073953      4.347538e-65   7.743902e-50  
0.2079722      4.677301e-65   8.226689e-50  
0.2085495      5.031032e-65   8.738176e-50  
0.2091272      5.410415e-65   9.279973e-50  
0.2097053      5.817257e-65   9.853773e-50  
0.2102842      6.253885e-65   1.046182e-49  
0.2108636      6.722115e-65   1.110559e-49  
0.2114435      7.224148e-65   1.178705e-49  
0.2120237      7.762323e-65   1.250828e-49  
0.2126044      8.339118e-65   1.327145e-49  
0.2131855      8.957188e-65   1.407885e-49  
0.213767       9.619382e-65   1.49329e-49   
0.214349       1.032867e-64   1.583612e-49  
0.2149314      1.108831e-64   1.67912e-49   
0.2155142      1.190149e-64   1.780096e-49  
0.2160979      1.277242e-64   1.886918e-49  
0.216682       1.370434e-64   1.999826e-49  
0.2172666      1.47011e-64    1.129144e-50  
0.2178516      1.576702e-64   1.199911e-50  
0.218437       1.690652e-64   1.274916e-50  
0.2190229      1.812426e-64   1.3544e-50    
0.2196092      1.942515e-64   1.438615e-50  
0.220196       2.081461e-64   1.527824e-50  
0.2207836      2.22996e-64    1.622378e-50  
0.2213717      2.388523e-64   1.722508e-50  
0.2219603      2.557794e-64   1.828524e-50  
0.2225492      2.738468e-64   1.940754e-50  
0.2231387      2.931307e-64   2.059543e-50  
0.2237285      3.13713e-64    2.185251e-50  
0.2243193      3.356997e-64   2.318364e-50  
0.2249105      3.591712e-64   2.45919e-50   
0.2255022      3.842288e-64   2.608152e-50  
0.2260943      4.109809e-64   2.765694e-50  
0.2266869      4.395374e-64   2.932284e-50  
0.2272799      4.700165e-64   3.108416e-50  
0.2278734      5.025378e-64   3.294608e-50  
0.2284674      5.372203e-64   3.491406e-50  
0.2290618      5.741927e-64   3.69938e-50   
0.2296571      6.136277e-64   3.919301e-50  
0.2302529      6.556607e-64   4.15164e-50   
0.2308491      7.00454e-64    4.397063e-50  
0.2314458      7.481936e-64   4.65627e-50   
0.232043       7.990592e-64   4.930004e-50  
0.2326406      8.532544e-64   5.219036e-50  
0.2332387      9.109783e-64   5.524175e-50  
0.2338377      9.72492e-64    5.846524e-50  
0.2344372      1.037986e-63   6.186743e-50  
0.2350372      1.107722e-63   6.545764e-50  
0.2356377      1.181983e-63   6.924558e-50  
0.2362386      1.261052e-63   7.324141e-50  
0.23684        1.345237e-63   7.745572e-50  
0.2374418      1.434862e-63   8.189955e-50  
0.2380446      1.530353e-63   8.658845e-50  
0.2386479      1.632005e-63   9.153143e-50  
0.2392517      1.740199e-63   9.674153e-50  
0.2398559      1.855322e-63   1.022326e-49  
0.2404607      1.977801e-63   1.080193e-49  
0.2410659      2.108097e-63   1.141168e-49  
0.2416716      2.246662e-63   1.205408e-49  
0.2422777      2.393999e-63   1.27308e-49   
0.2428844      2.550647e-63   1.344356e-49  
0.2434916      2.717188e-63   1.419418e-49  
0.2440992      2.894269e-63   1.498457e-49  
0.2447073      3.082543e-63   1.581674e-49  
0.2453159      3.282739e-63   1.669278e-49  
0.245925       3.495559e-63   1.76149e-49   
0.2465346      3.721756e-63   1.85854e-49   
0.2471447      3.962171e-63   1.960674e-49  
0.2477553      4.21771e-63    2.068144e-49  
0.2483664      4.489311e-63   2.181216e-49  
0.248978       4.777986e-63   2.300171e-49  
0.2495901      5.084851e-63   2.425297e-49  
0.2502027      5.41108e-63    2.556896e-49  
0.2508152      5.757622e-63   2.695164e-49  
0.2514283      6.125992e-63   2.840537e-49  
0.2520419      6.517532e-63   2.993359e-49  
0.2526555      6.933348e-63   3.153858e-49  
0.2532696      7.375329e-63   3.322534e-49  
0.2538842      7.845216e-63   3.499785e-49  
0.2544993      8.344704e-63   3.686026e-49  
0.2551149      8.875541e-63   3.881692e-49  
0.255731       9.439657e-63   1.057256e-49  
0.2563476      1.003924e-62   1.117157e-49  
0.2569653      1.067719e-62   1.180354e-49  
0.2575829      1.135474e-62   1.246911e-49  
0.2582016      1.207558e-62   1.317112e-49  
0.2588208      1.284186e-62   1.391087e-49  
0.259441       1.365704e-62   1.469098e-49  
0.2600618      1.452365e-62   1.551289e-49  
0.2606831      1.544488e-62   1.637875e-49  
0.2613048      1.642431e-62   1.72908e-49   
0.2619272      1.746545e-62   1.82514e-49   
0.26255        1.857195e-62   1.926302e-49  
0.2631734      1.974768e-62   2.032826e-49  
0.2637968      2.099568e-62   2.144888e-49  
0.2644207      2.232138e-62   2.262862e-49  
0.2650451      2.372956e-62   2.387048e-49  
0.2656701      2.522562e-62   2.517761e-49  
0.2662955      2.68151e-62    2.655335e-49  
0.2669216      2.85036e-62    2.800115e-49  
0.2675481      3.02968e-62    2.952466e-49  
0.2681752      3.220065e-62   3.112769e-49  
0.2688029      3.422182e-62   3.281423e-49  
0.2694311      3.636739e-62   3.458846e-49  
0.2700598      3.86448e-62    3.645473e-49  
0.270689       4.106189e-62   3.841761e-49  
0.2713188      4.362724e-62   4.048185e-49  
0.2719492      4.635015e-62   4.265245e-49  
0.2725801      4.924051e-62   4.493466e-49  
0.2732115      5.230874e-62   4.733398e-49  
0.273843       5.556309e-62   4.985396e-49  
0.2744749      5.901846e-62   5.250265e-49  
0.2751075      6.268818e-62   5.528639e-49  
0.2757406      6.658655e-62   5.821179e-49  
0.2763737      7.0725e-62     6.128306e-49  
0.2770073      7.512248e-62   6.450992e-49  
0.2776415      7.979468e-62   6.790002e-49  
0.2782763      8.475708e-62   7.146131e-49  
0.2789116      9.002702e-62   7.520211e-49  
0.2795475      9.562318e-62   7.913113e-49  
0.2801839      1.015663e-61   8.325754e-49  
0.2808209      1.078781e-61   8.759095e-49  
0.2814585      1.145832e-61   9.214143e-49  
0.2820966      1.217048e-61   9.691961e-49  
0.2827353      1.292672e-61   1.019366e-48  
0.2833746      1.372966e-61   1.072039e-48  
0.2840145      1.458196e-61   1.127338e-48  
0.2846549      1.548654e-61   1.185389e-48  
0.2852959      1.644656e-61   1.246325e-48  
0.2859374      1.746532e-61   1.310284e-48  
0.2865796      1.854636e-61   1.377411e-48  
0.2872223      1.969341e-61   1.447858e-48  
0.2878656      2.091054e-61   1.521783e-48  
0.2885095      2.220234e-61   1.599352e-48  
0.2891539      2.357358e-61   1.68074e-48   
0.289799       2.502927e-61   1.766129e-48  
0.290444       2.657301e-61   1.855629e-48  
0.2910897      2.821155e-61   1.949516e-48  
0.2917359      2.995065e-61   2.048002e-48  
0.2923827      3.179662e-61   2.151307e-48  
0.2930295      3.375458e-61   2.259558e-48  
0.293677       3.583312e-61   2.37309e-48   
0.294325       3.803959e-61   2.492151e-48  
0.2949736      4.038179e-61   2.617005e-48  
0.2956222      4.286565e-61   2.747803e-48  
0.2962714      4.550181e-61   2.884946e-48  
0.2969211      4.829956e-61   3.028736e-48  
0.2975715      5.126882e-61   3.179488e-48  
0.2982225      5.441999e-61   3.337536e-48  
0.2988741      5.776406e-61   3.503225e-48  
0.2995264      6.131283e-61   3.676919e-48  
0.3001792      6.507889e-61   3.858993e-48  
0.3008326      6.90754e-61    4.049843e-48  
0.3014866      7.331694e-61   4.249881e-48  
0.3021407      7.781461e-61   4.459333e-48  
0.3027953      8.258833e-61   4.678831e-48  
0.3034506      8.765454e-61   4.908841e-48  
0.3041065      9.303084e-61   5.149854e-48  
0.304763       9.873613e-61   5.402383e-48  
0.3054201      1.047909e-60   5.666969e-48  
0.3060779      1.11217e-60    5.944177e-48  
0.3067362      1.180377e-60   6.234593e-48  
0.3073946      1.252717e-60   6.538543e-48  
0.3080536      1.329521e-60   6.85694e-48   
0.3087132      1.411064e-60   7.190465e-48  
0.3093735      1.497626e-60   7.539834e-48  
0.3100344      1.589497e-60   7.905793e-48  
0.3106952      1.686888e-60   8.288741e-48  
0.3113568      1.790204e-60   8.689832e-48  
0.3120189      1.899779e-60   9.109915e-48  
0.3126817      2.015981e-60   9.549872e-48  
0.3133452      2.139209e-60   1.001063e-47  
0.3140092      2.269893e-60   1.049317e-47  
0.3146733      2.408361e-60   1.099799e-47  
0.315338       2.555233e-60   1.152661e-47  
0.3160034      2.711044e-60   1.208015e-47  
0.3166694      2.876381e-60   1.265974e-47  
0.3173354      3.051658e-60   1.326598e-47  
0.3180021      3.237649e-60   1.390067e-47  
0.3186694      3.435003e-60   1.456513e-47  
0.3193374      3.644408e-60   1.52607e-47   
0.320006       3.866587e-60   1.598882e-47  
0.3206746      4.102078e-60   1.67502e-47   
0.3213439      4.351927e-60   1.754711e-47  
0.3220139      4.61702e-60    1.838117e-47  
0.3226845      4.898312e-60   1.925407e-47  
0.3233557      5.196839e-60   2.016759e-47  
0.324027       5.513366e-60   2.112261e-47  
0.324699       5.849324e-60   2.212195e-47  
0.3253716      6.205922e-60   2.316763e-47  
0.3260442      6.584006e-60   2.426066e-47  
0.3267175      6.985241e-60   2.540424e-47  
0.3273914      7.411045e-60   2.660067e-47  
0.3280661      7.862888e-60   2.785234e-47  
0.3287414      8.342347e-60   2.916176e-47  
0.3294167      8.850634e-60   3.053013e-47  
0.3300927      9.390119e-60   3.196153e-47  
0.3307693      9.962771e-60   3.345886e-47  
0.3314467      1.057068e-59   3.502515e-47  
0.3321241      1.121527e-59   3.666186e-47  
0.3328021      1.189932e-59   3.837383e-47  
0.3334808      1.262515e-59   4.016449e-47  