# Probe 0 (0 0 0)
# Probe 1 (0 0.011 0)
# Time         0              1             
0              0              0             
1.199999e-06   3.132304e-10   3.132304e-10  
2.639996e-06   8.217673e-10   8.217673e-10  
4.367991e-06   1.488195e-09   1.488195e-09  
6.441582e-06   2.3117e-09     2.3117e-09    
8.92989e-06    3.309978e-09   3.309978e-09  
1.191586e-05   4.51217e-09    4.51217e-09   
1.549901e-05   5.956598e-09   5.956598e-09  
1.97988e-05    7.690659e-09   7.690659e-09  
2.495853e-05   9.771822e-09   9.771822e-09  
3.115017e-05   1.226931e-08   1.226931e-08  
3.858013e-05   1.52663e-08    1.52663e-08   
4.749602e-05   1.886261e-08   1.886261e-08  
5.819505e-05   2.317808e-08   2.317808e-08  
7.103374e-05   2.835644e-08   2.835644e-08  
8.644002e-05   3.457019e-08   3.457019e-08  
0.0001049275   4.202636e-08   4.202636e-08  
0.0001271124   5.097327e-08   5.097327e-08  
0.0001537338   6.170874e-08   6.170874e-08  
0.0001856788   7.459008e-08   7.459008e-08  
0.0002240123   9.004616e-08   9.004616e-08  
0.0002700107   1.085908e-07   1.085908e-07  
0.0003252078   1.308412e-07   1.308412e-07  
0.0003914421   1.575368e-07   1.575368e-07  
0.0004709212   1.895649e-07   1.895649e-07  
0.0005662961   2.279902e-07   2.279902e-07  
0.0006807395   2.740861e-07   2.740861e-07  
0.0008180652   3.293815e-07   3.293815e-07  
0.000982838    3.957039e-07   3.957039e-07  
0.001176559    4.736435e-07   4.736435e-07  
0.001400359    5.636391e-07   5.636391e-07  
0.00165556     6.662006e-07   6.662006e-07  
0.001943267    7.817488e-07   7.817488e-07  
0.002264392    9.106216e-07   9.106216e-07  
0.002605149    1.047262e-06   1.047262e-06  
0.002947191    1.184302e-06   1.184302e-06  
0.003290175    1.321604e-06   1.321604e-06  
0.003633986    1.459121e-06   1.459121e-06  
0.003978392    1.59676e-06    1.59676e-06   
0.004323394    1.734521e-06   1.734521e-06  
0.004668995    1.872404e-06   1.872404e-06  
0.005015197    2.01041e-06    2.01041e-06   
0.005362124    2.148588e-06   2.148588e-06  
0.005709656    2.28689e-06    2.28689e-06   
0.006057919    2.425364e-06   2.425364e-06  
0.006406916    2.564013e-06   2.564013e-06  
0.006756772    2.702885e-06   2.702885e-06  
0.007107494    2.841981e-06   2.841981e-06  
0.007459085    2.981303e-06   2.981303e-06  
0.007811675    3.120901e-06   3.120901e-06  
0.00816527     3.260777e-06   3.260777e-06  
0.00851975     3.400883e-06   3.400883e-06  
0.008875247    3.54127e-06    3.54127e-06   
0.009231766    3.681939e-06   3.681939e-06  
0.009589315    3.822892e-06   3.822892e-06  
0.0099479      3.964131e-06   3.964131e-06  
0.01030753     4.105657e-06   4.105657e-06  
0.0106682      4.247472e-06   4.247472e-06  
0.01102993     4.389578e-06   4.389578e-06  
0.01139286     4.532029e-06   4.532029e-06  
0.01175685     4.674775e-06   4.674775e-06  
0.01212205     4.817869e-06   4.817869e-06  
0.01248848     4.961315e-06   4.961315e-06  
0.01285599     5.105061e-06   5.105061e-06  
0.01322461     5.249108e-06   5.249108e-06  
0.01359446     5.393514e-06   5.393514e-06  
0.01396543     5.538225e-06   5.538225e-06  
0.01433752     5.683244e-06   5.683244e-06  
0.01471073     5.828572e-06   5.828572e-06  
0.01508508     5.974212e-06   5.974212e-06  
0.01546058     6.120165e-06   6.120165e-06  
0.01583722     6.266433e-06   6.266433e-06  
0.01621501     6.413018e-06   6.413018e-06  
0.01659398     6.559922e-06   6.559922e-06  
0.01697396     6.70709e-06    6.70709e-06   
0.01735498     6.854524e-06   6.854524e-06  
0.01773704     7.002225e-06   7.002225e-06  
0.01812013     7.150195e-06   7.150195e-06  
0.01850428     7.298435e-06   7.298435e-06  
0.01888948     7.446946e-06   7.446946e-06  
0.01927575     7.59573e-06    7.59573e-06   
0.01966308     7.744789e-06   7.744789e-06  
0.02005148     7.894124e-06   7.894124e-06  
0.02044082     8.043677e-06   8.043677e-06  
0.02083123     8.19351e-06    8.19351e-06   
0.02122259     8.343563e-06   8.343563e-06  
0.02161504     8.493898e-06   8.493898e-06  
0.02200844     8.644456e-06   8.644456e-06  
0.02240279     8.795239e-06   8.795239e-06  
0.0227981      8.946247e-06   8.946247e-06  
0.02319437     9.097482e-06   9.097482e-06  
0.02359161     9.248944e-06   9.248944e-06  
0.02398982     9.400635e-06   9.400635e-06  
0.024389       9.552557e-06   9.552557e-06  
0.02478917     9.704709e-06   9.704709e-06  
0.02519016     9.857032e-06   9.857032e-06  
0.02559215     1.000959e-05   1.000959e-05  
0.02599496     1.016232e-05   1.016232e-05  
0.02639878     1.031528e-05   1.031528e-05  
0.02680343     1.046842e-05   1.046842e-05  
0.0272091      1.062179e-05   1.062179e-05  
0.02761562     1.077534e-05   1.077534e-05  
0.02802298     1.092907e-05   1.092907e-05  
0.0284312      1.108297e-05   1.108297e-05  
0.02884029     1.123705e-05   1.123705e-05  
0.02925023     1.139131e-05   1.139131e-05  
0.02966104     1.154575e-05   1.154575e-05  
0.03007255     1.17003e-05    1.17003e-05   
0.03048494     1.185504e-05   1.185504e-05  
0.0308982      1.200995e-05   1.200995e-05  
0.03131217     1.216498e-05   1.216498e-05  
0.03172703     1.23202e-05    1.23202e-05   
0.03214259     1.247553e-05   1.247553e-05  
0.03255888     1.263098e-05   1.263098e-05  
0.03297606     1.278662e-05   1.278662e-05  
0.03339396     1.294238e-05   1.294238e-05  
0.03381258     1.309826e-05   1.309826e-05  
0.03423193     1.325425e-05   1.325425e-05  
0.03465202     1.341037e-05   1.341037e-05  
0.03507283     1.356661e-05   1.356661e-05  
0.03549438     1.372297e-05   1.372297e-05  
0.03591667     1.387946e-05   1.387946e-05  
0.0363397      1.403607e-05   1.403607e-05  
0.03676347     1.41928e-05    1.41928e-05   
0.03718799     1.434965e-05   1.434965e-05  
0.03761307     1.450657e-05   1.450657e-05  
0.03803891     1.46636e-05    1.46636e-05   
0.0384655      1.482077e-05   1.482077e-05  
0.03889285     1.497806e-05   1.497806e-05  
0.03932077     1.513541e-05   1.513541e-05  
0.03974945     1.529288e-05   1.529288e-05  
0.0401789      1.545049e-05   1.545049e-05  
0.04060893     1.560815e-05   1.560815e-05  
0.04103973     1.576594e-05   1.576594e-05  
0.04147111     1.592379e-05   1.592379e-05  
0.04190307     1.60817e-05    1.60817e-05   
0.04233582     1.623974e-05   1.623974e-05  
0.04276915     1.639785e-05   1.639785e-05  
0.04320307     1.655601e-05   1.655601e-05  
0.04363758     1.671423e-05   1.671423e-05  
0.04407269     1.687252e-05   1.687252e-05  
0.04450859     1.703093e-05   1.703093e-05  
0.04494509     1.718941e-05   1.718941e-05  
0.04538218     1.734796e-05   1.734796e-05  
0.04581988     1.750656e-05   1.750656e-05  
0.04625818     1.766523e-05   1.766523e-05  
0.04669709     1.782396e-05   1.782396e-05  
0.0471366      1.798276e-05   1.798276e-05  
0.04757672     1.814162e-05   1.814162e-05  
0.04801745     1.830054e-05   1.830054e-05  
0.0484588      1.845953e-05   1.845953e-05  
0.04890076     1.861858e-05   1.861858e-05  
0.04934334     1.87777e-05    1.87777e-05   
0.04978653     1.893689e-05   1.893689e-05  
0.05023035     1.909614e-05   1.909614e-05  
0.05067479     1.925546e-05   1.925546e-05  
0.05111986     1.941485e-05   1.941485e-05  
0.05156534     1.957423e-05   1.957423e-05  
0.05201145     1.973367e-05   1.973367e-05  
0.0524582      1.989319e-05   1.989319e-05  
0.05290557     2.005277e-05   2.005277e-05  
0.05335337     2.021235e-05   2.021235e-05  
0.05380181     2.0372e-05     2.0372e-05    
0.05425067     2.053164e-05   2.053164e-05  
0.05470017     2.069135e-05   2.069135e-05  
0.0551501      2.085105e-05   2.085105e-05  
0.05560067     2.101083e-05   2.101083e-05  
0.05605167     2.11706e-05    2.11706e-05   
0.05650332     2.133044e-05   2.133044e-05  
0.05695562     2.149036e-05   2.149036e-05  
0.05740835     2.165026e-05   2.165026e-05  
0.05786174     2.181025e-05   2.181025e-05  
0.05831556     2.197022e-05   2.197022e-05  
0.05877004     2.213028e-05   2.213028e-05  
0.05922497     2.229032e-05   2.229032e-05  
0.05968055     2.245045e-05   2.245045e-05  
0.06013657     2.261056e-05   2.261056e-05  
0.06059326     2.277076e-05   2.277076e-05  
0.06105039     2.293095e-05   2.293095e-05  
0.06150797     2.309114e-05   2.309114e-05  
0.06196622     2.32514e-05    2.32514e-05   
0.06242491     2.341166e-05   2.341166e-05  
0.06288406     2.357192e-05   2.357192e-05  
0.06334388     2.373226e-05   2.373226e-05  
0.06380415     2.38926e-05    2.38926e-05   
0.06426488     2.405293e-05   2.405293e-05  
0.06472606     2.421327e-05   2.421327e-05  
0.06518769     2.43736e-05    2.43736e-05   
0.06564979     2.453394e-05   2.453394e-05  
0.06611234     2.469427e-05   2.469427e-05  
0.06657534     2.48546e-05    2.48546e-05   
0.06703881     2.501494e-05   2.501494e-05  
0.06750274     2.517527e-05   2.517527e-05  
0.06796713     2.533561e-05   2.533561e-05  
0.06843199     2.549594e-05   2.549594e-05  
0.06889731     2.565628e-05   2.565628e-05  
0.06936309     2.581662e-05   2.581662e-05  
0.06982934     2.597696e-05   2.597696e-05  
0.07029606     2.61373e-05    2.61373e-05   
0.07076325     2.629765e-05   2.629765e-05  
0.07123091     2.6458e-05     2.6458e-05    
0.07169903     2.661835e-05   2.661835e-05  
0.0721674      2.677862e-05   2.677862e-05  
0.07263624     2.69389e-05    2.69389e-05   
0.07310555     2.709918e-05   2.709918e-05  
0.07357534     2.725946e-05   2.725946e-05  
0.07404561     2.741975e-05   2.741975e-05  
0.07451635     2.758004e-05   2.758004e-05  
0.07498734     2.774025e-05   2.774025e-05  
0.0754588      2.790047e-05   2.790047e-05  
0.07593075     2.80607e-05    2.80607e-05   
0.07640318     2.822093e-05   2.822093e-05  
0.07687584     2.838108e-05   2.838108e-05  
0.077349       2.854124e-05   2.854124e-05  
0.07782264     2.87014e-05    2.87014e-05   
0.07829652     2.886149e-05   2.886149e-05  
0.07877089     2.902159e-05   2.902159e-05  
0.07924575     2.918169e-05   2.918169e-05  
0.07972086     2.934171e-05   2.934171e-05  
0.08019646     2.950175e-05   2.950175e-05  
0.0806723      2.966171e-05   2.966171e-05  
0.08114863     2.982167e-05   2.982167e-05  
0.08162522     2.998156e-05   2.998156e-05  
0.08210205     3.014138e-05   3.014138e-05  
0.08257937     3.03012e-05    3.03012e-05   
0.08305695     3.046095e-05   3.046095e-05  
0.08353502     3.062071e-05   3.062071e-05  
0.08401334     3.07804e-05    3.07804e-05   
0.08449191     3.094001e-05   3.094001e-05  
0.08497099     3.109963e-05   3.109963e-05  
0.08545031     3.125918e-05   3.125918e-05  
0.08592989     3.141865e-05   3.141865e-05  
0.08640996     3.157814e-05   3.157814e-05  
0.0868903      3.173755e-05   3.173755e-05  
0.08737088     3.189689e-05   3.189689e-05  
0.08785197     3.205624e-05   3.205624e-05  
0.08833332     3.221551e-05   3.221551e-05  
0.08881491     3.237472e-05   3.237472e-05  
0.08929702     3.253394e-05   3.253394e-05  
0.08977939     3.269308e-05   3.269308e-05  
0.09026201     3.285216e-05   3.285216e-05  
0.09074514     3.301124e-05   3.301124e-05  
0.09122853     3.317026e-05   3.317026e-05  
0.09171217     3.33292e-05    3.33292e-05   
0.09219608     3.348807e-05   3.348807e-05  
0.0926805      3.364696e-05   3.364696e-05  
0.09316518     3.380577e-05   3.380577e-05  
0.09365012     3.396452e-05   3.396452e-05  
0.09413531     3.412319e-05   3.412319e-05  
0.09462103     3.428188e-05   3.428188e-05  
0.09510701     3.44405e-05    3.44405e-05   
0.09559325     3.459905e-05   3.459905e-05  
0.09608002     3.475761e-05   3.475761e-05  
0.09656704     3.491611e-05   3.491611e-05  
0.09705433     3.507454e-05   3.507454e-05  
0.09754188     3.523289e-05   3.523289e-05  
0.09802996     3.539127e-05   3.539127e-05  
0.0985183      3.554957e-05   3.554957e-05  
0.09900691     3.570781e-05   3.570781e-05  
0.09949605     3.586606e-05   3.586606e-05  
0.09998545     3.602425e-05   3.602425e-05  
0.1004751      3.618236e-05   3.618236e-05  
0.1009653      3.63405e-05    3.63405e-05   
0.1014558      3.649857e-05   3.649857e-05  
0.1019468      3.665665e-05   3.665665e-05  
0.1024381      3.681467e-05   3.681467e-05  
0.1029296      3.697262e-05   3.697262e-05  
0.1034217      3.71306e-05    3.71306e-05   
0.1039141      3.72885e-05    3.72885e-05   
0.1044067      3.744634e-05   3.744634e-05  
0.1048999      3.76042e-05    3.76042e-05   
0.1053933      3.776199e-05   3.776199e-05  
0.1058873      3.79198e-05    3.79198e-05   
0.1063815      3.807755e-05   3.807755e-05  
0.1068761      3.823523e-05   3.823523e-05  
0.1073712      3.839293e-05   3.839293e-05  
0.1078665      3.855057e-05   3.855057e-05  
0.1083621      3.870814e-05   3.870814e-05  
0.1088583      3.886573e-05   3.886573e-05  
0.1093548      3.902326e-05   3.902326e-05  
0.1098518      3.918081e-05   3.918081e-05  
0.1103491      3.93383e-05    3.93383e-05   
0.1108469      3.949581e-05   3.949581e-05  
0.1113451      3.965326e-05   3.965326e-05  
0.1118435      3.981064e-05   3.981064e-05  
0.1123421      3.996796e-05   3.996796e-05  
0.1128414      4.01253e-05    4.01253e-05   
0.1133409      4.028258e-05   4.028258e-05  
0.1138407      4.043979e-05   4.043979e-05  
0.1143411      4.059703e-05   4.059703e-05  
0.1148417      4.075421e-05   4.075421e-05  
0.115343       4.091142e-05   4.091142e-05  
0.1158445      4.106856e-05   4.106856e-05  
0.1163463      4.122564e-05   4.122564e-05  
0.1168486      4.138274e-05   4.138274e-05  
0.1173513      4.153978e-05   4.153978e-05  
0.1178545      4.169686e-05   4.169686e-05  
0.118358       4.185386e-05   4.185386e-05  
0.1188618      4.201081e-05   4.201081e-05  
0.1193662      4.216779e-05   4.216779e-05  
0.1198708      4.23247e-05    4.23247e-05   
0.1203761      4.248164e-05   4.248164e-05  
0.1208816      4.263852e-05   4.263852e-05  
0.1213874      4.279534e-05   4.279534e-05  
0.1218938      4.295219e-05   4.295219e-05  
0.1224005      4.310898e-05   4.310898e-05  
0.1229075      4.326571e-05   4.326571e-05  
0.1234151      4.342247e-05   4.342247e-05  
0.123923       4.357917e-05   4.357917e-05  
0.1244314      4.37359e-05    4.37359e-05   
0.1249402      4.389257e-05   4.389257e-05  
0.1254492      4.404919e-05   4.404919e-05  
0.1259589      4.420583e-05   4.420583e-05  
0.1264688      4.436241e-05   4.436241e-05  
0.1269794      4.451903e-05   4.451903e-05  
0.1274902      4.467559e-05   4.467559e-05  
0.1280013      4.483209e-05   4.483209e-05  
0.1285131      4.498862e-05   4.498862e-05  
0.1290251      4.514509e-05   4.514509e-05  
0.1295377      4.53016e-05    4.53016e-05   
0.1300507      4.545805e-05   4.545805e-05  
0.1305639      4.561444e-05   4.561444e-05  
0.1310778      4.577087e-05   4.577087e-05  
0.1315919      4.592724e-05   4.592724e-05  
0.1321064      4.608355e-05   4.608355e-05  
0.1326215      4.62399e-05    4.62399e-05   
0.1331368      4.639619e-05   4.639619e-05  
0.1336525      4.655243e-05   4.655243e-05  
0.1341688      4.67087e-05    4.67087e-05   
0.1346854      4.686491e-05   4.686491e-05  
0.1352027      4.702116e-05   4.702116e-05  
0.1357202      4.717736e-05   4.717736e-05  
0.136238       4.73335e-05    4.73335e-05   
0.1367565      4.748968e-05   4.748968e-05  
0.1372753      4.76458e-05    4.76458e-05   
0.1377944      4.780187e-05   4.780187e-05  
0.1383141      4.795797e-05   4.795797e-05  
0.1388341      4.811402e-05   4.811402e-05  
0.1393548      4.827011e-05   4.827011e-05  
0.1398757      4.842615e-05   4.842615e-05  
0.140397       4.858213e-05   4.858213e-05  
0.1409189      4.873815e-05   4.873815e-05  
0.1414412      4.889412e-05   4.889412e-05  
0.1419637      4.905003e-05   4.905003e-05  
0.1424869      4.920599e-05   4.920599e-05  
0.1430104      4.936189e-05   4.936189e-05  
0.1435343      4.951774e-05   4.951774e-05  
0.1440587      4.967363e-05   4.967363e-05  
0.1445835      4.982947e-05   4.982947e-05  
0.1451087      4.998525e-05   4.998525e-05  
0.1456341      5.014098e-05   5.014098e-05  
0.1461602      5.029676e-05   5.029676e-05  
0.1466866      5.045248e-05   5.045248e-05  
0.1472133      5.060815e-05   5.060815e-05  
0.1477407      5.076387e-05   5.076387e-05  
0.1482684      5.091953e-05   5.091953e-05  
0.1487965      5.107515e-05   5.107515e-05  
0.1493252      5.12308e-05    5.12308e-05   
0.1498542      5.138641e-05   5.138641e-05  
0.1503836      5.154196e-05   5.154196e-05  
0.1509136      5.169757e-05   5.169757e-05  
0.1514439      5.185312e-05   5.185312e-05  
0.1519749      5.200871e-05   5.200871e-05  
0.1525063      5.216426e-05   5.216426e-05  
0.1530383      5.231986e-05   5.231986e-05  
0.1535706      5.24754e-05    5.24754e-05   
0.1541033      5.26309e-05    5.26309e-05   
0.1546367      5.278644e-05   5.278644e-05  
0.1551704      5.294194e-05   5.294194e-05  
0.1557047      5.309748e-05   5.309748e-05  
0.1562394      5.325297e-05   5.325297e-05  
0.1567745      5.340842e-05   5.340842e-05  
0.1573102      5.356391e-05   5.356391e-05  
0.1578462      5.371936e-05   5.371936e-05  
0.1583826      5.387476e-05   5.387476e-05  
0.1589197      5.403021e-05   5.403021e-05  
0.1594572      5.418561e-05   5.418561e-05  
0.1599949      5.434097e-05   5.434097e-05  
0.1605331      5.449627e-05   5.449627e-05  
0.1610719      5.465163e-05   5.465163e-05  
0.161611       5.480694e-05   5.480694e-05  
0.1621505      5.496221e-05   5.496221e-05  
0.1626907      5.511753e-05   5.511753e-05  
0.1632313      5.52728e-05    5.52728e-05   
0.1637722      5.542802e-05   5.542802e-05  
0.1643138      5.55833e-05    5.55833e-05   
0.1648557      5.573853e-05   5.573853e-05  
0.1653984      5.589382e-05   5.589382e-05  
0.1659414      5.604907e-05   5.604907e-05  
0.1664848      5.620426e-05   5.620426e-05  
0.1670288      5.635952e-05   5.635952e-05  
0.1675732      5.651472e-05   5.651472e-05  
0.168118       5.666989e-05   5.666989e-05  
0.1686632      5.6825e-05     5.6825e-05    
0.169209       5.698018e-05   5.698018e-05  
0.1697552      5.713531e-05   5.713531e-05  
0.1703018      5.72904e-05    5.72904e-05   
0.1708491      5.744554e-05   5.744554e-05  
0.1713968      5.760064e-05   5.760064e-05  
0.1719448      5.77557e-05    5.77557e-05   
0.1724935      5.791082e-05   5.791082e-05  
0.1730426      5.806589e-05   5.806589e-05  
0.1735921      5.822092e-05   5.822092e-05  
0.1741419      5.837591e-05   5.837591e-05  
0.1746925      5.853096e-05   5.853096e-05  
0.1752435      5.868597e-05   5.868597e-05  
0.1757948      5.884093e-05   5.884093e-05  
0.1763464      5.899585e-05   5.899585e-05  
0.1768989      5.915084e-05   5.915084e-05  
0.1774516      5.930578e-05   5.930578e-05  
0.1780048      5.946068e-05   5.946068e-05  
0.1785583      5.961554e-05   5.961554e-05  
0.1791126      5.977046e-05   5.977046e-05  
0.1796673      5.992534e-05   5.992534e-05  
0.1802223      6.008019e-05   6.008019e-05  
0.1807777      6.023499e-05   6.023499e-05  
0.1813335      6.038975e-05   6.038975e-05  
0.1818896      6.054447e-05   6.054447e-05  
0.1824466      6.069925e-05   6.069925e-05  
0.1830039      6.0854e-05     6.0854e-05    
0.1835615      6.100871e-05   6.100871e-05  
0.1841196      6.116338e-05   6.116338e-05  
0.184678       6.131801e-05   6.131801e-05  
0.1852372      6.14727e-05    6.14727e-05   
0.1857968      6.162736e-05   6.162736e-05  
0.1863568      6.178198e-05   6.178198e-05  
0.1869172      6.193656e-05   6.193656e-05  
0.1874779      6.20911e-05    6.20911e-05   
0.188039       6.224561e-05   6.224561e-05  
0.188601       6.240018e-05   6.240018e-05  
0.1891633      6.255472e-05   6.255472e-05  
0.1897259      6.270922e-05   6.270922e-05  
0.190289       6.286368e-05   6.286368e-05  
0.1908529      6.301821e-05   6.301821e-05  
0.1914171      6.317271e-05   6.317271e-05  
0.1919818      6.332717e-05   6.332717e-05  
0.1925468      6.348159e-05   6.348159e-05  
0.1931123      6.363598e-05   6.363598e-05  
0.1936785      6.379044e-05   6.379044e-05  
0.1942452      6.394487e-05   6.394487e-05  
0.1948122      6.409926e-05   6.409926e-05  
0.1953796      6.425361e-05   6.425361e-05  
0.1959475      6.440793e-05   6.440793e-05  
0.1965157      6.456222e-05   6.456222e-05  
0.1970843      6.471647e-05   6.471647e-05  
0.1976534      6.487068e-05   6.487068e-05  
0.1982228      6.502486e-05   6.502486e-05  
0.1987927      6.517901e-05   6.517901e-05  
0.1993629      6.533313e-05   6.533313e-05  
0.199934       6.548732e-05   6.548732e-05  
0.2005055      6.564148e-05   6.564148e-05  
0.2010774      6.57956e-05    6.57956e-05   
0.2016496      6.594969e-05   6.594969e-05  
0.2022224      6.610375e-05   6.610375e-05  
0.2027955      6.625778e-05   6.625778e-05  
0.203369       6.641177e-05   6.641177e-05  
0.2039429      6.656574e-05   6.656574e-05  
0.2045173      6.671967e-05   6.671967e-05  
0.2050921      6.687357e-05   6.687357e-05  
0.2056672      6.702743e-05   6.702743e-05  
0.2062429      6.718127e-05   6.718127e-05  
0.2068189      6.733508e-05   6.733508e-05  
0.2073953      6.748885e-05   6.748885e-05  
0.2079722      6.76426e-05    6.76426e-05   
0.2085495      6.779631e-05   6.779631e-05  
0.2091272      6.795e-05      6.795e-05     
0.2097053      6.810365e-05   6.810365e-05  
0.2102842      6.825739e-05   6.825739e-05  
0.2108636      6.84111e-05    6.84111e-05   
0.2114435      6.856478e-05   6.856478e-05  
0.2120237      6.871843e-05   6.871843e-05  
0.2126044      6.887205e-05   6.887205e-05  
0.2131855      6.902565e-05   6.902565e-05  
0.213767       6.917921e-05   6.917921e-05  
0.214349       6.933275e-05   6.933275e-05  
0.2149314      6.948626e-05   6.948626e-05  
0.2155142      6.963974e-05   6.963974e-05  
0.2160979      6.979331e-05   6.979331e-05  
0.216682       6.994685e-05   6.994685e-05  
0.2172666      7.010037e-05   7.010037e-05  
0.2178516      7.025386e-05   7.025386e-05  
0.218437       7.040732e-05   7.040732e-05  
0.2190229      7.056075e-05   7.056075e-05  
0.2196092      7.071416e-05   7.071416e-05  
0.220196       7.086754e-05   7.086754e-05  
0.2207836      7.102102e-05   7.102102e-05  
0.2213717      7.117447e-05   7.117447e-05  
0.2219603      7.132789e-05   7.132789e-05  
0.2225492      7.148129e-05   7.148129e-05  
0.2231387      7.163466e-05   7.163466e-05  
0.2237285      7.178801e-05   7.178801e-05  
0.2243193      7.194145e-05   7.194145e-05  
0.2249105      7.209486e-05   7.209486e-05  
0.2255022      7.224826e-05   7.224826e-05  
0.2260943      7.240163e-05   7.240163e-05  
0.2266869      7.255497e-05   7.255497e-05  
0.2272799      7.270829e-05   7.270829e-05  
0.2278734      7.286159e-05   7.286159e-05  
0.2284674      7.301487e-05   7.301487e-05  
0.2290618      7.316812e-05   7.316812e-05  
0.2296571      7.332147e-05   7.332147e-05  
0.2302529      7.34748e-05    7.34748e-05   
0.2308491      7.362811e-05   7.362811e-05  
0.2314458      7.378139e-05   7.378139e-05  
0.232043       7.393466e-05   7.393466e-05  
0.2326406      7.40879e-05    7.40879e-05   
0.2332387      7.424112e-05   7.424112e-05  
0.2338377      7.439444e-05   7.439444e-05  
0.2344372      7.454774e-05   7.454774e-05  
0.2350372      7.470102e-05   7.470102e-05  
0.2356377      7.485428e-05   7.485428e-05  
0.2362386      7.500752e-05   7.500752e-05  
0.23684        7.516074e-05   7.516074e-05  
0.2374418      7.531394e-05   7.531394e-05  
0.2380446      7.546724e-05   7.546724e-05  
0.2386479      7.562052e-05   7.562052e-05  
0.2392517      7.577379e-05   7.577379e-05  
0.2398559      7.592704e-05   7.592704e-05  
0.2404607      7.608026e-05   7.608026e-05  
0.2410659      7.623348e-05   7.623348e-05  
0.2416716      7.638667e-05   7.638667e-05  
0.2422777      7.653984e-05   7.653984e-05  
0.2428844      7.6693e-05     7.6693e-05    
0.2434916      7.684614e-05   7.684614e-05  
0.2440992      7.699927e-05   7.699927e-05  
0.2447073      7.715238e-05   7.715238e-05  
0.2453159      7.730547e-05   7.730547e-05  
0.245925       7.745854e-05   7.745854e-05  
0.2465346      7.76116e-05    7.76116e-05   
0.2471447      7.776465e-05   7.776465e-05  
0.2477553      7.791768e-05   7.791768e-05  
0.2483664      7.807069e-05   7.807069e-05  
0.248978       7.822369e-05   7.822369e-05  
0.2495901      7.837667e-05   7.837667e-05  
0.2502027      7.852964e-05   7.852964e-05  
0.2508152      7.868247e-05   7.868247e-05  
0.2514283      7.883529e-05   7.883529e-05  
0.2520419      7.89881e-05    7.89881e-05   
0.2526555      7.914076e-05   7.914076e-05  
0.2532696      7.929341e-05   7.929341e-05  
0.2538842      7.944605e-05   7.944605e-05  
0.2544993      7.959868e-05   7.959868e-05  
0.2551149      7.975129e-05   7.975129e-05  
0.255731       7.990389e-05   7.990389e-05  
0.2563476      8.005648e-05   8.005648e-05  
0.2569653      8.020919e-05   8.020919e-05  
0.2575829      8.036176e-05   8.036176e-05  
0.2582016      8.051444e-05   8.051444e-05  
0.2588208      8.066711e-05   8.066711e-05  
0.259441       8.08199e-05    8.08199e-05   
0.2600618      8.097268e-05   8.097268e-05  
0.2606831      8.112545e-05   8.112545e-05  
0.2613048      8.127821e-05   8.127821e-05  
0.2619272      8.143095e-05   8.143095e-05  
0.26255        8.158369e-05   8.158369e-05  
0.2631734      8.173642e-05   8.173642e-05  
0.2637968      8.188902e-05   8.188902e-05  
0.2644207      8.20416e-05    8.20416e-05   
0.2650451      8.219417e-05   8.219417e-05  
0.2656701      8.234674e-05   8.234674e-05  
0.2662955      8.24993e-05    8.24993e-05   
0.2669216      8.265185e-05   8.265185e-05  
0.2675481      8.28044e-05    8.28044e-05   
0.2681752      8.295693e-05   8.295693e-05  
0.2688029      8.310946e-05   8.310946e-05  
0.2694311      8.326199e-05   8.326199e-05  
0.2700598      8.34145e-05    8.34145e-05   
0.270689       8.356701e-05   8.356701e-05  
0.2713188      8.371952e-05   8.371952e-05  
0.2719492      8.387202e-05   8.387202e-05  
0.2725801      8.402451e-05   8.402451e-05  
0.2732115      8.4177e-05     8.4177e-05    
0.273843       8.432935e-05   8.432935e-05  
0.2744749      8.44817e-05    8.44817e-05   
0.2751075      8.463404e-05   8.463404e-05  
0.2757406      8.478638e-05   8.478638e-05  
0.2763737      8.493858e-05   8.493858e-05  
0.2770073      8.509078e-05   8.509078e-05  
0.2776415      8.524298e-05   8.524298e-05  
0.2782763      8.539517e-05   8.539517e-05  
0.2789116      8.554736e-05   8.554736e-05  
0.2795475      8.569954e-05   8.569954e-05  
0.2801839      8.585173e-05   8.585173e-05  
0.2808209      8.600391e-05   8.600391e-05  
0.2814585      8.615609e-05   8.615609e-05  
0.2820966      8.630827e-05   8.630827e-05  
0.2827353      8.646045e-05   8.646045e-05  
0.2833746      8.661263e-05   8.661263e-05  
0.2840145      8.67648e-05    8.67648e-05   
0.2846549      8.691698e-05   8.691698e-05  
0.2852959      8.706916e-05   8.706916e-05  
0.2859374      8.722133e-05   8.722133e-05  
0.2865796      8.737351e-05   8.737351e-05  
0.2872223      8.752569e-05   8.752569e-05  
0.2878656      8.767787e-05   8.767787e-05  
0.2885095      8.783005e-05   8.783005e-05  
0.2891539      8.798223e-05   8.798223e-05  
0.289799       8.813441e-05   8.813441e-05  
0.290444       8.828646e-05   8.828646e-05  
0.2910897      8.843851e-05   8.843851e-05  
0.2917359      8.859056e-05   8.859056e-05  
0.2923827      8.874262e-05   8.874262e-05  
0.2930295      8.889454e-05   8.889454e-05  
0.293677       8.904646e-05   8.904646e-05  
0.294325       8.919839e-05   8.919839e-05  
0.2949736      8.935032e-05   8.935032e-05  
0.2956222      8.950211e-05   8.950211e-05  
0.2962714      8.965391e-05   8.965391e-05  
0.2969211      8.980572e-05   8.980572e-05  
0.2975715      8.995753e-05   8.995753e-05  
0.2982225      9.010934e-05   9.010934e-05  
0.2988741      9.026117e-05   9.026117e-05  
0.2995264      9.041299e-05   9.041299e-05  
0.3001792      9.056482e-05   9.056482e-05  
0.3008326      9.071666e-05   9.071666e-05  
0.3014866      9.086851e-05   9.086851e-05  
0.3021407      9.102022e-05   9.102022e-05  
0.3027953      9.117194e-05   9.117194e-05  
0.3034506      9.132367e-05   9.132367e-05  
0.3041065      9.14754e-05    9.14754e-05   
0.304763       9.162714e-05   9.162714e-05  
0.3054201      9.177889e-05   9.177889e-05  
0.3060779      9.193065e-05   9.193065e-05  
0.3067362      9.208242e-05   9.208242e-05  
0.3073946      9.223406e-05   9.223406e-05  
0.3080536      9.23857e-05    9.23857e-05   
0.3087132      9.253735e-05   9.253735e-05  
0.3093735      9.268902e-05   9.268902e-05  
0.3100344      9.284069e-05   9.284069e-05  
0.3106952      9.299223e-05   9.299223e-05  
0.3113568      9.314378e-05   9.314378e-05  
0.3120189      9.329534e-05   9.329534e-05  
0.3126817      9.344692e-05   9.344692e-05  
0.3133452      9.35985e-05    9.35985e-05   
0.3140092      9.37501e-05    9.37501e-05   
0.3146733      9.390157e-05   9.390157e-05  
0.315338       9.405304e-05   9.405304e-05  
0.3160034      9.420453e-05   9.420453e-05  
0.3166694      9.435603e-05   9.435603e-05  
0.3173354      9.45074e-05    9.45074e-05   
0.3180021      9.465879e-05   9.465879e-05  
0.3186694      9.481018e-05   9.481018e-05  
0.3193374      9.49616e-05    9.49616e-05   
0.320006       9.511302e-05   9.511302e-05  
0.3206746      9.526432e-05   9.526432e-05  
0.3213439      9.541563e-05   9.541563e-05  
0.3220139      9.556695e-05   9.556695e-05  
0.3226845      9.571829e-05   9.571829e-05  
0.3233557      9.586965e-05   9.586965e-05  
0.324027       9.602087e-05   9.602087e-05  
0.324699       9.617211e-05   9.617211e-05  
0.3253716      9.632337e-05   9.632337e-05  
0.3260442      9.64745e-05    9.64745e-05   
0.3267175      9.662564e-05   9.662564e-05  
0.3273914      9.67768e-05    9.67768e-05   
0.3280661      9.692798e-05   9.692798e-05  
0.3287414      9.707918e-05   9.707918e-05  
0.3294167      9.723024e-05   9.723024e-05  
0.3300927      9.738133e-05   9.738133e-05  
0.3307693      9.753243e-05   9.753243e-05  
0.3314467      9.768355e-05   9.768355e-05  
0.3321241      9.783455e-05   9.783455e-05  
0.3328021      9.798556e-05   9.798556e-05  
0.3334808      9.813659e-05   9.813659e-05  