# Probe 0 (0 0 0)
# Probe 1 (0 0.011 0)
# Time         0              1             
0              0              0             
1.199999e-06   4.377198e-05   4.377198e-05  
2.639996e-06   5.922081e-05   5.922081e-05  
4.367991e-06   6.724923e-05   6.724923e-05  
6.441582e-06   7.219109e-05   7.219109e-05  
8.92989e-06    7.553651e-05   7.553651e-05  
1.191586e-05   7.794206e-05   7.794206e-05  
1.549901e-05   7.974449e-05   7.974449e-05  
1.97988e-05    8.11354e-05    8.11354e-05   
2.495853e-05   8.223242e-05   8.223242e-05  
3.115017e-05   8.311206e-05   8.311206e-05  
3.858013e-05   8.382645e-05   8.382645e-05  
4.749602e-05   8.441243e-05   8.441243e-05  
5.819505e-05   8.489684e-05   8.489684e-05  
7.103374e-05   8.529974e-05   8.529974e-05  
8.644002e-05   8.563645e-05   8.563645e-05  
0.0001049275   8.591884e-05   8.591884e-05  
0.0001271124   8.615629e-05   8.615629e-05  
0.0001537338   8.635626e-05   8.635626e-05  
0.0001856788   8.652475e-05   8.652475e-05  
0.0002240123   8.666665e-05   8.666665e-05  
0.0002700107   8.67859e-05    8.67859e-05   
0.0003252078   8.688574e-05   8.688574e-05  
0.0003914421   8.69688e-05    8.69688e-05   
0.0004709212   8.70372e-05    8.70372e-05   
0.0005662961   8.709266e-05   8.709266e-05  
0.0006807395   8.71365e-05    8.71365e-05   
0.0008180652   8.716972e-05   8.716972e-05  
0.000982838    8.719304e-05   8.719304e-05  
0.001176559    8.720681e-05   8.720681e-05  
0.001400359    8.72117e-05    8.72117e-05   
0.00165556     8.720847e-05   8.720847e-05  
0.001943267    8.71978e-05    8.71978e-05   
0.002264392    8.718031e-05   8.718031e-05  
0.002605149    8.715762e-05   8.715762e-05  
0.002947191    8.713198e-05   8.713198e-05  
0.003290175    8.710422e-05   8.710422e-05  
0.003633986    8.707487e-05   8.707487e-05  
0.003978392    8.704433e-05   8.704433e-05  
0.004323394    8.701285e-05   8.701285e-05  
0.004668995    8.698061e-05   8.698061e-05  
0.005015197    8.694776e-05   8.694776e-05  
0.005362124    8.691439e-05   8.691439e-05  
0.005709656    8.688059e-05   8.688059e-05  
0.006057919    8.684642e-05   8.684642e-05  
0.006406916    8.681193e-05   8.681193e-05  
0.006756772    8.677714e-05   8.677714e-05  
0.007107494    8.674209e-05   8.674209e-05  
0.007459085    8.670681e-05   8.670681e-05  
0.007811675    8.66713e-05    8.66713e-05   
0.00816527     8.663559e-05   8.663559e-05  
0.00851975     8.65997e-05    8.65997e-05   
0.008875247    8.656364e-05   8.656364e-05  
0.009231766    8.652741e-05   8.652741e-05  
0.009589315    8.649103e-05   8.649103e-05  
0.0099479      8.645451e-05   8.645451e-05  
0.01030753     8.641784e-05   8.641784e-05  
0.0106682      8.638104e-05   8.638104e-05  
0.01102993     8.634412e-05   8.634412e-05  
0.01139286     8.630706e-05   8.630706e-05  
0.01175685     8.626988e-05   8.626988e-05  
0.01212205     8.623258e-05   8.623258e-05  
0.01248848     8.619514e-05   8.619514e-05  
0.01285599     8.615761e-05   8.615761e-05  
0.01322461     8.611996e-05   8.611996e-05  
0.01359446     8.60822e-05    8.60822e-05   
0.01396543     8.604433e-05   8.604433e-05  
0.01433752     8.600637e-05   8.600637e-05  
0.01471073     8.596831e-05   8.596831e-05  
0.01508508     8.593015e-05   8.593015e-05  
0.01546058     8.589189e-05   8.589189e-05  
0.01583722     8.585354e-05   8.585354e-05  
0.01621501     8.581509e-05   8.581509e-05  
0.01659398     8.577656e-05   8.577656e-05  
0.01697396     8.573794e-05   8.573794e-05  
0.01735498     8.569925e-05   8.569925e-05  
0.01773704     8.566048e-05   8.566048e-05  
0.01812013     8.562164e-05   8.562164e-05  
0.01850428     8.558272e-05   8.558272e-05  
0.01888948     8.554372e-05   8.554372e-05  
0.01927575     8.550465e-05   8.550465e-05  
0.01966308     8.546551e-05   8.546551e-05  
0.02005148     8.54263e-05    8.54263e-05   
0.02044082     8.538702e-05   8.538702e-05  
0.02083123     8.534767e-05   8.534767e-05  
0.02122259     8.530827e-05   8.530827e-05  
0.02161504     8.526879e-05   8.526879e-05  
0.02200844     8.522926e-05   8.522926e-05  
0.02240279     8.518967e-05   8.518967e-05  
0.0227981      8.515002e-05   8.515002e-05  
0.02319437     8.511031e-05   8.511031e-05  
0.02359161     8.507055e-05   8.507055e-05  
0.02398982     8.503074e-05   8.503074e-05  
0.024389       8.499086e-05   8.499086e-05  
0.02478917     8.495093e-05   8.495093e-05  
0.02519016     8.491096e-05   8.491096e-05  
0.02559215     8.487094e-05   8.487094e-05  
0.02599496     8.483087e-05   8.483087e-05  
0.02639878     8.479075e-05   8.479075e-05  
0.02680343     8.475059e-05   8.475059e-05  
0.0272091      8.471037e-05   8.471037e-05  
0.02761562     8.467011e-05   8.467011e-05  
0.02802298     8.462982e-05   8.462982e-05  
0.0284312      8.458948e-05   8.458948e-05  
0.02884029     8.45491e-05    8.45491e-05   
0.02925023     8.450869e-05   8.450869e-05  
0.02966104     8.446823e-05   8.446823e-05  
0.03007255     8.442776e-05   8.442776e-05  
0.03048494     8.438724e-05   8.438724e-05  
0.0308982      8.434668e-05   8.434668e-05  
0.03131217     8.43061e-05    8.43061e-05   
0.03172703     8.426548e-05   8.426548e-05  
0.03214259     8.422484e-05   8.422484e-05  
0.03255888     8.418418e-05   8.418418e-05  
0.03297606     8.414348e-05   8.414348e-05  
0.03339396     8.410275e-05   8.410275e-05  
0.03381258     8.4062e-05     8.4062e-05    
0.03423193     8.402123e-05   8.402123e-05  
0.03465202     8.398044e-05   8.398044e-05  
0.03507283     8.393962e-05   8.393962e-05  
0.03549438     8.389879e-05   8.389879e-05  
0.03591667     8.385793e-05   8.385793e-05  
0.0363397      8.381704e-05   8.381704e-05  
0.03676347     8.377614e-05   8.377614e-05  
0.03718799     8.373521e-05   8.373521e-05  
0.03761307     8.369428e-05   8.369428e-05  
0.03803891     8.365332e-05   8.365332e-05  
0.0384655      8.361235e-05   8.361235e-05  
0.03889285     8.357134e-05   8.357134e-05  
0.03932077     8.353034e-05   8.353034e-05  
0.03974945     8.348931e-05   8.348931e-05  
0.0401789      8.344826e-05   8.344826e-05  
0.04060893     8.340721e-05   8.340721e-05  
0.04103973     8.336613e-05   8.336613e-05  
0.04147111     8.332504e-05   8.332504e-05  
0.04190307     8.328396e-05   8.328396e-05  
0.04233582     8.324284e-05   8.324284e-05  
0.04276915     8.320173e-05   8.320173e-05  
0.04320307     8.316061e-05   8.316061e-05  
0.04363758     8.311948e-05   8.311948e-05  
0.04407269     8.307835e-05   8.307835e-05  
0.04450859     8.30372e-05    8.30372e-05   
0.04494509     8.299604e-05   8.299604e-05  
0.04538218     8.295488e-05   8.295488e-05  
0.04581988     8.291371e-05   8.291371e-05  
0.04625818     8.287254e-05   8.287254e-05  
0.04669709     8.283136e-05   8.283136e-05  
0.0471366      8.279018e-05   8.279018e-05  
0.04757672     8.274899e-05   8.274899e-05  
0.04801745     8.27078e-05    8.27078e-05   
0.0484588      8.26666e-05    8.26666e-05   
0.04890076     8.26254e-05    8.26254e-05   
0.04934334     8.258419e-05   8.258419e-05  
0.04978653     8.254297e-05   8.254297e-05  
0.05023035     8.250176e-05   8.250176e-05  
0.05067479     8.246053e-05   8.246053e-05  
0.05111986     8.24193e-05    8.24193e-05   
0.05156534     8.237809e-05   8.237809e-05  
0.05201145     8.233687e-05   8.233687e-05  
0.0524582      8.229564e-05   8.229564e-05  
0.05290557     8.225441e-05   8.225441e-05  
0.05335337     8.221319e-05   8.221319e-05  
0.05380181     8.217197e-05   8.217197e-05  
0.05425067     8.213076e-05   8.213076e-05  
0.05470017     8.208954e-05   8.208954e-05  
0.0551501      8.204834e-05   8.204834e-05  
0.05560067     8.200713e-05   8.200713e-05  
0.05605167     8.196594e-05   8.196594e-05  
0.05650332     8.192474e-05   8.192474e-05  
0.05695562     8.188354e-05   8.188354e-05  
0.05740835     8.184235e-05   8.184235e-05  
0.05786174     8.180115e-05   8.180115e-05  
0.05831556     8.175997e-05   8.175997e-05  
0.05877004     8.171878e-05   8.171878e-05  
0.05922497     8.16776e-05    8.16776e-05   
0.05968055     8.163642e-05   8.163642e-05  
0.06013657     8.159525e-05   8.159525e-05  
0.06059326     8.155407e-05   8.155407e-05  
0.06105039     8.151291e-05   8.151291e-05  
0.06150797     8.147176e-05   8.147176e-05  
0.06196622     8.143061e-05   8.143061e-05  
0.06242491     8.138947e-05   8.138947e-05  
0.06288406     8.134834e-05   8.134834e-05  
0.06334388     8.130721e-05   8.130721e-05  
0.06380415     8.126609e-05   8.126609e-05  
0.06426488     8.122498e-05   8.122498e-05  
0.06472606     8.118388e-05   8.118388e-05  
0.06518769     8.11428e-05    8.11428e-05   
0.06564979     8.110173e-05   8.110173e-05  
0.06611234     8.106068e-05   8.106068e-05  
0.06657534     8.101964e-05   8.101964e-05  
0.06703881     8.097861e-05   8.097861e-05  
0.06750274     8.09376e-05    8.09376e-05   
0.06796713     8.089659e-05   8.089659e-05  
0.06843199     8.085561e-05   8.085561e-05  
0.06889731     8.081463e-05   8.081463e-05  
0.06936309     8.077367e-05   8.077367e-05  
0.06982934     8.073272e-05   8.073272e-05  
0.07029606     8.069178e-05   8.069178e-05  
0.07076325     8.065086e-05   8.065086e-05  
0.07123091     8.060994e-05   8.060994e-05  
0.07169903     8.056905e-05   8.056905e-05  
0.0721674      8.052818e-05   8.052818e-05  
0.07263624     8.048733e-05   8.048733e-05  
0.07310555     8.044649e-05   8.044649e-05  
0.07357534     8.040566e-05   8.040566e-05  
0.07404561     8.036485e-05   8.036485e-05  
0.07451635     8.032404e-05   8.032404e-05  
0.07498734     8.028327e-05   8.028327e-05  
0.0754588      8.024252e-05   8.024252e-05  
0.07593075     8.020177e-05   8.020177e-05  
0.07640318     8.016104e-05   8.016104e-05  
0.07687584     8.012034e-05   8.012034e-05  
0.077349       8.007966e-05   8.007966e-05  
0.07782264     8.003898e-05   8.003898e-05  
0.07829652     7.999834e-05   7.999834e-05  
0.07877089     7.995771e-05   7.995771e-05  
0.07924575     7.99171e-05    7.99171e-05   
0.07972086     7.987651e-05   7.987651e-05  
0.08019646     7.983594e-05   7.983594e-05  
0.0806723      7.97954e-05    7.97954e-05   
0.08114863     7.975487e-05   7.975487e-05  
0.08162522     7.971438e-05   7.971438e-05  
0.08210205     7.967392e-05   7.967392e-05  
0.08257937     7.963347e-05   7.963347e-05  
0.08305695     7.959305e-05   7.959305e-05  
0.08353502     7.955265e-05   7.955265e-05  
0.08401334     7.951227e-05   7.951227e-05  
0.08449191     7.947193e-05   7.947193e-05  
0.08497099     7.94316e-05    7.94316e-05   
0.08545031     7.939131e-05   7.939131e-05  
0.08592989     7.935104e-05   7.935104e-05  
0.08640996     7.931079e-05   7.931079e-05  
0.0868903      7.927057e-05   7.927057e-05  
0.08737088     7.923038e-05   7.923038e-05  
0.08785197     7.919021e-05   7.919021e-05  
0.08833332     7.915006e-05   7.915006e-05  
0.08881491     7.910995e-05   7.910995e-05  
0.08929702     7.906985e-05   7.906985e-05  
0.08977939     7.902978e-05   7.902978e-05  
0.09026201     7.898974e-05   7.898974e-05  
0.09074514     7.894972e-05   7.894972e-05  
0.09122853     7.890972e-05   7.890972e-05  
0.09171217     7.886976e-05   7.886976e-05  
0.09219608     7.882983e-05   7.882983e-05  
0.0926805      7.878991e-05   7.878991e-05  
0.09316518     7.875003e-05   7.875003e-05  
0.09365012     7.871017e-05   7.871017e-05  
0.09413531     7.867035e-05   7.867035e-05  
0.09462103     7.863053e-05   7.863053e-05  
0.09510701     7.859075e-05   7.859075e-05  
0.09559325     7.8551e-05     7.8551e-05    
0.09608002     7.851126e-05   7.851126e-05  
0.09656704     7.847155e-05   7.847155e-05  
0.09705433     7.843188e-05   7.843188e-05  
0.09754188     7.839223e-05   7.839223e-05  
0.09802996     7.83526e-05    7.83526e-05   
0.0985183      7.831299e-05   7.831299e-05  
0.09900691     7.827342e-05   7.827342e-05  
0.09949605     7.823386e-05   7.823386e-05  
0.09998545     7.819432e-05   7.819432e-05  
0.1004751      7.815482e-05   7.815482e-05  
0.1009653      7.811533e-05   7.811533e-05  
0.1014558      7.807587e-05   7.807587e-05  
0.1019468      7.803642e-05   7.803642e-05  
0.1024381      7.799701e-05   7.799701e-05  
0.1029296      7.795762e-05   7.795762e-05  
0.1034217      7.791824e-05   7.791824e-05  
0.1039141      7.787889e-05   7.787889e-05  
0.1044067      7.783958e-05   7.783958e-05  
0.1048999      7.780027e-05   7.780027e-05  
0.1053933      7.776099e-05   7.776099e-05  
0.1058873      7.772173e-05   7.772173e-05  
0.1063815      7.768249e-05   7.768249e-05  
0.1068761      7.764328e-05   7.764328e-05  
0.1073712      7.760409e-05   7.760409e-05  
0.1078665      7.756492e-05   7.756492e-05  
0.1083621      7.752579e-05   7.752579e-05  
0.1088583      7.748666e-05   7.748666e-05  
0.1093548      7.744756e-05   7.744756e-05  
0.1098518      7.740848e-05   7.740848e-05  
0.1103491      7.736942e-05   7.736942e-05  
0.1108469      7.733037e-05   7.733037e-05  
0.1113451      7.729135e-05   7.729135e-05  
0.1118435      7.725237e-05   7.725237e-05  
0.1123421      7.721341e-05   7.721341e-05  
0.1128414      7.717446e-05   7.717446e-05  
0.1133409      7.713554e-05   7.713554e-05  
0.1138407      7.709665e-05   7.709665e-05  
0.1143411      7.705777e-05   7.705777e-05  
0.1148417      7.701892e-05   7.701892e-05  
0.115343       7.698008e-05   7.698008e-05  
0.1158445      7.694127e-05   7.694127e-05  
0.1163463      7.690248e-05   7.690248e-05  
0.1168486      7.686371e-05   7.686371e-05  
0.1173513      7.682496e-05   7.682496e-05  
0.1178545      7.678623e-05   7.678623e-05  
0.118358       7.674752e-05   7.674752e-05  
0.1188618      7.670884e-05   7.670884e-05  
0.1193662      7.667017e-05   7.667017e-05  
0.1198708      7.663153e-05   7.663153e-05  
0.1203761      7.65929e-05    7.65929e-05   
0.1208816      7.65543e-05    7.65543e-05   
0.1213874      7.651573e-05   7.651573e-05  
0.1218938      7.647716e-05   7.647716e-05  
0.1224005      7.643862e-05   7.643862e-05  
0.1229075      7.640012e-05   7.640012e-05  
0.1234151      7.636162e-05   7.636162e-05  
0.123923       7.632315e-05   7.632315e-05  
0.1244314      7.628468e-05   7.628468e-05  
0.1249402      7.624625e-05   7.624625e-05  
0.1254492      7.620784e-05   7.620784e-05  
0.1259589      7.616944e-05   7.616944e-05  
0.1264688      7.613108e-05   7.613108e-05  
0.1269794      7.609271e-05   7.609271e-05  
0.1274902      7.605438e-05   7.605438e-05  
0.1280013      7.601608e-05   7.601608e-05  
0.1285131      7.597778e-05   7.597778e-05  
0.1290251      7.593951e-05   7.593951e-05  
0.1295377      7.590125e-05   7.590125e-05  
0.1300507      7.586301e-05   7.586301e-05  
0.1305639      7.582481e-05   7.582481e-05  
0.1310778      7.578661e-05   7.578661e-05  
0.1315919      7.574844e-05   7.574844e-05  
0.1321064      7.57103e-05    7.57103e-05   
0.1326215      7.567217e-05   7.567217e-05  
0.1331368      7.563406e-05   7.563406e-05  
0.1336525      7.559598e-05   7.559598e-05  
0.1341688      7.555791e-05   7.555791e-05  
0.1346854      7.551987e-05   7.551987e-05  
0.1352027      7.548183e-05   7.548183e-05  
0.1357202      7.544382e-05   7.544382e-05  
0.136238       7.540584e-05   7.540584e-05  
0.1367565      7.536787e-05   7.536787e-05  
0.1372753      7.532992e-05   7.532992e-05  
0.1377944      7.5292e-05     7.5292e-05    
0.1383141      7.525409e-05   7.525409e-05  
0.1388341      7.521621e-05   7.521621e-05  
0.1393548      7.517833e-05   7.517833e-05  
0.1398757      7.514048e-05   7.514048e-05  
0.140397       7.510265e-05   7.510265e-05  
0.1409189      7.506484e-05   7.506484e-05  
0.1414412      7.502705e-05   7.502705e-05  
0.1419637      7.498928e-05   7.498928e-05  
0.1424869      7.495153e-05   7.495153e-05  
0.1430104      7.49138e-05    7.49138e-05   
0.1435343      7.48761e-05    7.48761e-05   
0.1440587      7.48384e-05    7.48384e-05   
0.1445835      7.480073e-05   7.480073e-05  
0.1451087      7.476309e-05   7.476309e-05  
0.1456341      7.472548e-05   7.472548e-05  
0.1461602      7.468787e-05   7.468787e-05  
0.1466866      7.465029e-05   7.465029e-05  
0.1472133      7.461273e-05   7.461273e-05  
0.1477407      7.457518e-05   7.457518e-05  
0.1482684      7.453766e-05   7.453766e-05  
0.1487965      7.450017e-05   7.450017e-05  
0.1493252      7.446268e-05   7.446268e-05  
0.1498542      7.442521e-05   7.442521e-05  
0.1503836      7.438778e-05   7.438778e-05  
0.1509136      7.435034e-05   7.435034e-05  
0.1514439      7.431294e-05   7.431294e-05  
0.1519749      7.427554e-05   7.427554e-05  
0.1525063      7.423816e-05   7.423816e-05  
0.1530383      7.420079e-05   7.420079e-05  
0.1535706      7.416345e-05   7.416345e-05  
0.1541033      7.412613e-05   7.412613e-05  
0.1546367      7.408882e-05   7.408882e-05  
0.1551704      7.405153e-05   7.405153e-05  
0.1557047      7.401425e-05   7.401425e-05  
0.1562394      7.397699e-05   7.397699e-05  
0.1567745      7.393977e-05   7.393977e-05  
0.1573102      7.390254e-05   7.390254e-05  
0.1578462      7.386534e-05   7.386534e-05  
0.1583826      7.382817e-05   7.382817e-05  
0.1589197      7.3791e-05     7.3791e-05    
0.1594572      7.375386e-05   7.375386e-05  
0.1599949      7.371674e-05   7.371674e-05  
0.1605331      7.367965e-05   7.367965e-05  
0.1610719      7.364256e-05   7.364256e-05  
0.161611       7.36055e-05    7.36055e-05   
0.1621505      7.356847e-05   7.356847e-05  
0.1626907      7.353143e-05   7.353143e-05  
0.1632313      7.349443e-05   7.349443e-05  
0.1637722      7.345745e-05   7.345745e-05  
0.1643138      7.342047e-05   7.342047e-05  
0.1648557      7.338352e-05   7.338352e-05  
0.1653984      7.334657e-05   7.334657e-05  
0.1659414      7.330965e-05   7.330965e-05  
0.1664848      7.327275e-05   7.327275e-05  
0.1670288      7.323586e-05   7.323586e-05  
0.1675732      7.319899e-05   7.319899e-05  
0.168118       7.316214e-05   7.316214e-05  
0.1686632      7.312533e-05   7.312533e-05  
0.169209       7.308851e-05   7.308851e-05  
0.1697552      7.305172e-05   7.305172e-05  
0.1703018      7.301496e-05   7.301496e-05  
0.1708491      7.297819e-05   7.297819e-05  
0.1713968      7.294146e-05   7.294146e-05  
0.1719448      7.290475e-05   7.290475e-05  
0.1724935      7.286803e-05   7.286803e-05  
0.1730426      7.283135e-05   7.283135e-05  
0.1735921      7.279469e-05   7.279469e-05  
0.1741419      7.275806e-05   7.275806e-05  
0.1746925      7.272142e-05   7.272142e-05  
0.1752435      7.268482e-05   7.268482e-05  
0.1757948      7.264823e-05   7.264823e-05  
0.1763464      7.261168e-05   7.261168e-05  
0.1768989      7.257512e-05   7.257512e-05  
0.1774516      7.253859e-05   7.253859e-05  
0.1780048      7.250208e-05   7.250208e-05  
0.1785583      7.24656e-05    7.24656e-05   
0.1791126      7.242912e-05   7.242912e-05  
0.1796673      7.239267e-05   7.239267e-05  
0.1802223      7.235624e-05   7.235624e-05  
0.1807777      7.231983e-05   7.231983e-05  
0.1813335      7.228345e-05   7.228345e-05  
0.1818896      7.224709e-05   7.224709e-05  
0.1824466      7.221074e-05   7.221074e-05  
0.1830039      7.217441e-05   7.217441e-05  
0.1835615      7.21381e-05    7.21381e-05   
0.1841196      7.210182e-05   7.210182e-05  
0.184678       7.206556e-05   7.206556e-05  
0.1852372      7.20293e-05    7.20293e-05   
0.1857968      7.199307e-05   7.199307e-05  
0.1863568      7.195686e-05   7.195686e-05  
0.1869172      7.192067e-05   7.192067e-05  
0.1874779      7.188451e-05   7.188451e-05  
0.188039       7.184838e-05   7.184838e-05  
0.188601       7.181224e-05   7.181224e-05  
0.1891633      7.177613e-05   7.177613e-05  
0.1897259      7.174004e-05   7.174004e-05  
0.190289       7.170397e-05   7.170397e-05  
0.1908529      7.166791e-05   7.166791e-05  
0.1914171      7.163186e-05   7.163186e-05  
0.1919818      7.159585e-05   7.159585e-05  
0.1925468      7.155985e-05   7.155985e-05  
0.1931123      7.152388e-05   7.152388e-05  
0.1936785      7.148791e-05   7.148791e-05  
0.1942452      7.145196e-05   7.145196e-05  
0.1948122      7.141604e-05   7.141604e-05  
0.1953796      7.138013e-05   7.138013e-05  
0.1959475      7.134426e-05   7.134426e-05  
0.1965157      7.13084e-05    7.13084e-05   
0.1970843      7.127257e-05   7.127257e-05  
0.1976534      7.123677e-05   7.123677e-05  
0.1982228      7.120098e-05   7.120098e-05  
0.1987927      7.116522e-05   7.116522e-05  
0.1993629      7.112949e-05   7.112949e-05  
0.199934       7.109375e-05   7.109375e-05  
0.2005055      7.105803e-05   7.105803e-05  
0.2010774      7.102234e-05   7.102234e-05  
0.2016496      7.098667e-05   7.098667e-05  
0.2022224      7.095102e-05   7.095102e-05  
0.2027955      7.09154e-05    7.09154e-05   
0.203369       7.087979e-05   7.087979e-05  
0.2039429      7.084422e-05   7.084422e-05  
0.2045173      7.080866e-05   7.080866e-05  
0.2050921      7.077313e-05   7.077313e-05  
0.2056672      7.073762e-05   7.073762e-05  
0.2062429      7.070213e-05   7.070213e-05  
0.2068189      7.066667e-05   7.066667e-05  
0.2073953      7.063122e-05   7.063122e-05  
0.2079722      7.05958e-05    7.05958e-05   
0.2085495      7.056041e-05   7.056041e-05  
0.2091272      7.052503e-05   7.052503e-05  
0.2097053      7.048968e-05   7.048968e-05  
0.2102842      7.045432e-05   7.045432e-05  
0.2108636      7.041899e-05   7.041899e-05  
0.2114435      7.038367e-05   7.038367e-05  
0.2120237      7.034838e-05   7.034838e-05  
0.2126044      7.031312e-05   7.031312e-05  
0.2131855      7.027787e-05   7.027787e-05  
0.213767       7.024265e-05   7.024265e-05  
0.214349       7.020744e-05   7.020744e-05  
0.2149314      7.017226e-05   7.017226e-05  
0.2155142      7.01371e-05    7.01371e-05   
0.2160979      7.010194e-05   7.010194e-05  
0.216682       7.00668e-05    7.00668e-05   
0.2172666      7.003168e-05   7.003168e-05  
0.2178516      6.999658e-05   6.999658e-05  
0.218437       6.996151e-05   6.996151e-05  
0.2190229      6.992645e-05   6.992645e-05  
0.2196092      6.989142e-05   6.989142e-05  
0.220196       6.985641e-05   6.985641e-05  
0.2207836      6.982139e-05   6.982139e-05  
0.2213717      6.978639e-05   6.978639e-05  
0.2219603      6.975142e-05   6.975142e-05  
0.2225492      6.971647e-05   6.971647e-05  
0.2231387      6.968153e-05   6.968153e-05  
0.2237285      6.964662e-05   6.964662e-05  
0.2243193      6.961171e-05   6.961171e-05  
0.2249105      6.957681e-05   6.957681e-05  
0.2255022      6.954193e-05   6.954193e-05  
0.2260943      6.950708e-05   6.950708e-05  
0.2266869      6.947225e-05   6.947225e-05  
0.2272799      6.943744e-05   6.943744e-05  
0.2278734      6.940264e-05   6.940264e-05  
0.2284674      6.936787e-05   6.936787e-05  
0.2290618      6.933312e-05   6.933312e-05  
0.2296571      6.929837e-05   6.929837e-05  
0.2302529      6.926363e-05   6.926363e-05  
0.2308491      6.922892e-05   6.922892e-05  
0.2314458      6.919422e-05   6.919422e-05  
0.232043       6.915955e-05   6.915955e-05  
0.2326406      6.912489e-05   6.912489e-05  
0.2332387      6.909026e-05   6.909026e-05  
0.2338377      6.905562e-05   6.905562e-05  
0.2344372      6.9021e-05     6.9021e-05    
0.2350372      6.89864e-05    6.89864e-05   
0.2356377      6.895181e-05   6.895181e-05  
0.2362386      6.891725e-05   6.891725e-05  
0.23684        6.888271e-05   6.888271e-05  
0.2374418      6.884819e-05   6.884819e-05  
0.2380446      6.881367e-05   6.881367e-05  
0.2386479      6.877916e-05   6.877916e-05  
0.2392517      6.874467e-05   6.874467e-05  
0.2398559      6.87102e-05    6.87102e-05   
0.2404607      6.867575e-05   6.867575e-05  
0.2410659      6.864132e-05   6.864132e-05  
0.2416716      6.860691e-05   6.860691e-05  
0.2422777      6.857252e-05   6.857252e-05  
0.2428844      6.853815e-05   6.853815e-05  
0.2434916      6.85038e-05    6.85038e-05   
0.2440992      6.846947e-05   6.846947e-05  
0.2447073      6.843515e-05   6.843515e-05  
0.2453159      6.840086e-05   6.840086e-05  
0.245925       6.836659e-05   6.836659e-05  
0.2465346      6.833233e-05   6.833233e-05  
0.2471447      6.829809e-05   6.829809e-05  
0.2477553      6.826388e-05   6.826388e-05  
0.2483664      6.822968e-05   6.822968e-05  
0.248978       6.81955e-05    6.81955e-05   
0.2495901      6.816134e-05   6.816134e-05  
0.2502027      6.812719e-05   6.812719e-05  
0.2508152      6.80931e-05    6.80931e-05   
0.2514283      6.805902e-05   6.805902e-05  
0.2520419      6.802496e-05   6.802496e-05  
0.2526555      6.799095e-05   6.799095e-05  
0.2532696      6.795696e-05   6.795696e-05  
0.2538842      6.792298e-05   6.792298e-05  
0.2544993      6.788903e-05   6.788903e-05  
0.2551149      6.785509e-05   6.785509e-05  
0.255731       6.782117e-05   6.782117e-05  
0.2563476      6.778726e-05   6.778726e-05  
0.2569653      6.775335e-05   6.775335e-05  
0.2575829      6.771948e-05   6.771948e-05  
0.2582016      6.768561e-05   6.768561e-05  
0.2588208      6.765175e-05   6.765175e-05  
0.259441       6.761788e-05   6.761788e-05  
0.2600618      6.758403e-05   6.758403e-05  
0.2606831      6.75502e-05    6.75502e-05   
0.2613048      6.751638e-05   6.751638e-05  
0.2619272      6.748258e-05   6.748258e-05  
0.26255        6.74488e-05    6.74488e-05   
0.2631734      6.741504e-05   6.741504e-05  
0.2637968      6.738132e-05   6.738132e-05  
0.2644207      6.734762e-05   6.734762e-05  
0.2650451      6.731394e-05   6.731394e-05  
0.2656701      6.728028e-05   6.728028e-05  
0.2662955      6.724663e-05   6.724663e-05  
0.2669216      6.7213e-05     6.7213e-05    
0.2675481      6.717939e-05   6.717939e-05  
0.2681752      6.714579e-05   6.714579e-05  
0.2688029      6.711221e-05   6.711221e-05  
0.2694311      6.707865e-05   6.707865e-05  
0.2700598      6.704511e-05   6.704511e-05  
0.270689       6.701158e-05   6.701158e-05  
0.2713188      6.697807e-05   6.697807e-05  
0.2719492      6.694457e-05   6.694457e-05  
0.2725801      6.691109e-05   6.691109e-05  
0.2732115      6.687763e-05   6.687763e-05  
0.273843       6.684422e-05   6.684422e-05  
0.2744749      6.681082e-05   6.681082e-05  
0.2751075      6.677743e-05   6.677743e-05  
0.2757406      6.674407e-05   6.674407e-05  
0.2763737      6.671075e-05   6.671075e-05  
0.2770073      6.667744e-05   6.667744e-05  
0.2776415      6.664415e-05   6.664415e-05  
0.2782763      6.661088e-05   6.661088e-05  
0.2789116      6.657762e-05   6.657762e-05  
0.2795475      6.654438e-05   6.654438e-05  
0.2801839      6.651116e-05   6.651116e-05  
0.2808209      6.647795e-05   6.647795e-05  
0.2814585      6.644476e-05   6.644476e-05  
0.2820966      6.641158e-05   6.641158e-05  
0.2827353      6.637842e-05   6.637842e-05  
0.2833746      6.634527e-05   6.634527e-05  
0.2840145      6.631214e-05   6.631214e-05  
0.2846549      6.627903e-05   6.627903e-05  
0.2852959      6.624593e-05   6.624593e-05  
0.2859374      6.621285e-05   6.621285e-05  
0.2865796      6.617978e-05   6.617978e-05  
0.2872223      6.614672e-05   6.614672e-05  
0.2878656      6.611369e-05   6.611369e-05  
0.2885095      6.608066e-05   6.608066e-05  
0.2891539      6.604766e-05   6.604766e-05  
0.289799       6.601466e-05   6.601466e-05  
0.290444       6.598171e-05   6.598171e-05  
0.2910897      6.594878e-05   6.594878e-05  
0.2917359      6.591586e-05   6.591586e-05  
0.2923827      6.588296e-05   6.588296e-05  
0.2930295      6.58501e-05    6.58501e-05   
0.293677       6.581726e-05   6.581726e-05  
0.294325       6.578443e-05   6.578443e-05  
0.2949736      6.575161e-05   6.575161e-05  
0.2956222      6.571884e-05   6.571884e-05  
0.2962714      6.568609e-05   6.568609e-05  
0.2969211      6.565335e-05   6.565335e-05  
0.2975715      6.562062e-05   6.562062e-05  
0.2982225      6.558791e-05   6.558791e-05  
0.2988741      6.555521e-05   6.555521e-05  
0.2995264      6.552252e-05   6.552252e-05  
0.3001792      6.548985e-05   6.548985e-05  
0.3008326      6.54572e-05    6.54572e-05   
0.3014866      6.542455e-05   6.542455e-05  
0.3021407      6.539195e-05   6.539195e-05  
0.3027953      6.535937e-05   6.535937e-05  
0.3034506      6.53268e-05    6.53268e-05   
0.3041065      6.529424e-05   6.529424e-05  
0.304763       6.52617e-05    6.52617e-05   
0.3054201      6.522917e-05   6.522917e-05  
0.3060779      6.519665e-05   6.519665e-05  
0.3067362      6.516415e-05   6.516415e-05  
0.3073946      6.513169e-05   6.513169e-05  
0.3080536      6.509924e-05   6.509924e-05  
0.3087132      6.506681e-05   6.506681e-05  
0.3093735      6.503439e-05   6.503439e-05  
0.3100344      6.500198e-05   6.500198e-05  
0.3106952      6.496962e-05   6.496962e-05  
0.3113568      6.493727e-05   6.493727e-05  
0.3120189      6.490493e-05   6.490493e-05  
0.3126817      6.487261e-05   6.487261e-05  
0.3133452      6.48403e-05    6.48403e-05   
0.3140092      6.4808e-05     6.4808e-05    
0.3146733      6.477574e-05   6.477574e-05  
0.315338       6.47435e-05    6.47435e-05   
0.3160034      6.471127e-05   6.471127e-05  
0.3166694      6.467905e-05   6.467905e-05  
0.3173354      6.464688e-05   6.464688e-05  
0.3180021      6.461472e-05   6.461472e-05  
0.3186694      6.458257e-05   6.458257e-05  
0.3193374      6.455043e-05   6.455043e-05  
0.320006       6.451831e-05   6.451831e-05  
0.3206746      6.448622e-05   6.448622e-05  
0.3213439      6.445415e-05   6.445415e-05  
0.3220139      6.44221e-05    6.44221e-05   
0.3226845      6.439005e-05   6.439005e-05  
0.3233557      6.435802e-05   6.435802e-05  
0.324027       6.432602e-05   6.432602e-05  
0.324699       6.429405e-05   6.429405e-05  
0.3253716      6.426208e-05   6.426208e-05  
0.3260442      6.423015e-05   6.423015e-05  
0.3267175      6.419824e-05   6.419824e-05  
0.3273914      6.416634e-05   6.416634e-05  
0.3280661      6.413445e-05   6.413445e-05  
0.3287414      6.410257e-05   6.410257e-05  
0.3294167      6.407073e-05   6.407073e-05  
0.3300927      6.403891e-05   6.403891e-05  
0.3307693      6.400709e-05   6.400709e-05  
0.3314467      6.397529e-05   6.397529e-05  
0.3321241      6.394353e-05   6.394353e-05  
0.3328021      6.391178e-05   6.391178e-05  
0.3334808      6.388004e-05   6.388004e-05  