# Probe 2 (0.02084516 0.01902959 6.086361e-17)
# Probe 3 (-0.0002369365 0.02063675 -0.01158831)
# Time         0              1              2              3             
0              0              0              0              0             
1.199999e-06   0.0001418144   0.0001418144   0.0001418144   0.0001418144  
2.639996e-06   0.0001418138   0.0001418138   0.0001418138   0.0001418138  
4.367991e-06   0.0001418131   0.0001418131   0.0001418131   0.0001418131  
6.441582e-06   0.0001418122   0.0001418122   0.0001418122   0.0001418122  
8.92989e-06    0.0001418111   0.0001418111   0.0001418111   0.0001418111  
1.191586e-05   0.0001418099   0.0001418099   0.0001418099   0.0001418099  
1.549901e-05   0.0001418084   0.0001418084   0.0001418084   0.0001418084  
1.97988e-05    0.0001418066   0.0001418066   0.0001418066   0.0001418066  
2.495853e-05   0.0001418044   0.0001418044   0.0001418044   0.0001418044  
3.115017e-05   0.0001418018   0.0001418018   0.0001418018   0.0001418018  
3.858013e-05   0.0001417987   0.0001417987   0.0001417987   0.0001417987  
4.749602e-05   0.0001417949   0.0001417949   0.0001417949   0.0001417949  
5.819505e-05   0.0001417904   0.0001417904   0.0001417904   0.0001417904  
7.103374e-05   0.000141785    0.000141785    0.000141785    0.000141785   
8.644002e-05   0.0001417786   0.0001417786   0.0001417786   0.0001417786  
0.0001049275   0.0001417708   0.0001417708   0.0001417708   0.0001417708  
0.0001271124   0.0001417615   0.0001417615   0.0001417615   0.0001417615  
0.0001537338   0.0001417503   0.0001417503   0.0001417503   0.0001417503  
0.0001856788   0.0001417368   0.0001417368   0.0001417368   0.0001417368  
0.0002240123   0.0001417207   0.0001417207   0.0001417207   0.0001417207  
0.0002700107   0.0001417014   0.0001417014   0.0001417014   0.0001417014  
0.0003252078   0.0001416782   0.0001416782   0.0001416782   0.0001416782  
0.0003914421   0.0001416504   0.0001416504   0.0001416504   0.0001416504  
0.0004709212   0.0001416171   0.0001416171   0.0001416171   0.0001416171  
0.0005662961   0.000141577    0.000141577    0.000141577    0.000141577   
0.0006793159   0.0001415296   0.0001415296   0.0001415296   0.0001415296  
0.0008111872   0.0001414744   0.0001414744   0.0001414744   0.0001414744  
0.000963132    0.0001414107   0.0001414107   0.0001414107   0.0001414107  
0.001136365    0.0001413382   0.0001413382   0.0001413382   0.0001413382  
0.001332183    0.0001412563   0.0001412563   0.0001412563   0.0001412563  
0.001551911    0.0001411645   0.0001411645   0.0001411645   0.0001411645  
0.001796929    0.0001410623   0.0001410623   0.0001410623   0.0001410623  
0.002063757    0.000140951    0.000140951    0.000140951    0.000140951   
0.002343683    0.0001408345   0.0001408345   0.0001408345   0.0001408345  
0.00263608     0.000140713    0.000140713    0.000140713    0.000140713   
0.002941832    0.000140586    0.000140586    0.000140586    0.000140586   
0.003262223    0.0001404532   0.0001404532   0.0001404532   0.0001404532  
0.003594913    0.0001403155   0.0001403155   0.0001403155   0.0001403155  
0.003939809    0.000140173    0.000140173    0.000140173    0.000140173   
0.004297846    0.0001400253   0.0001400253   0.0001400253   0.0001400253  
0.004668547    0.0001398726   0.0001398726   0.0001398726   0.0001398726  
0.005053142    0.0001397145   0.0001397145   0.0001397145   0.0001397145  
0.00545128     0.0001395512   0.0001395512   0.0001395512   0.0001395512  
0.005863443    0.0001393824   0.0001393824   0.0001393824   0.0001393824  
0.006289562    0.0001392082   0.0001392082   0.0001392082   0.0001392082  
0.006730037    0.0001390285   0.0001390285   0.0001390285   0.0001390285  
0.007185665    0.000138843    0.000138843    0.000138843    0.000138843   
0.007657311    0.0001386515   0.0001386515   0.0001386515   0.0001386515  
0.008144949    0.0001384539   0.0001384539   0.0001384539   0.0001384539  
0.008648173    0.0001382504   0.0001382504   0.0001382504   0.0001382504  
0.009166391    0.0001380414   0.0001380414   0.0001380414   0.0001380414  
0.009699097    0.0001378271   0.0001378271   0.0001378271   0.0001378271  
0.01024713     0.0001376071   0.0001376071   0.0001376071   0.0001376071  
0.01081174     0.0001373811   0.0001373811   0.0001373811   0.0001373811  
0.01139293     0.0001371491   0.0001371491   0.0001371491   0.0001371491  
0.01198992     0.0001369115   0.0001369115   0.0001369115   0.0001369115  
0.01260244     0.0001366683   0.0001366683   0.0001366683   0.0001366683  
0.01323016     0.0001364199   0.0001364199   0.0001364199   0.0001364199  
0.01387301     0.0001361662   0.0001361662   0.0001361662   0.0001361662  
0.01453043     0.0001359076   0.0001359076   0.0001359076   0.0001359076  
0.01520218     0.0001356441   0.0001356441   0.0001356441   0.0001356441  
0.01588798     0.000135376    0.000135376    0.000135376    0.000135376   
0.01658742     0.0001351035   0.0001351035   0.0001351035   0.0001351035  
0.01730055     0.0001348265   0.0001348265   0.0001348265   0.0001348265  
0.01802633     0.0001345456   0.0001345456   0.0001345456   0.0001345456  
0.01876521     0.0001342606   0.0001342606   0.0001342606   0.0001342606  
0.01951654     0.0001339718   0.0001339718   0.0001339718   0.0001339718  
0.02028015     0.0001336793   0.0001336793   0.0001336793   0.0001336793  
0.02105586     0.0001333833   0.0001333833   0.0001333833   0.0001333833  
0.02184406     0.0001330836   0.0001330836   0.0001330836   0.0001330836  
0.02264517     0.0001327801   0.0001327801   0.0001327801   0.0001327801  
0.02345896     0.000132473    0.000132473    0.000132473    0.000132473   
0.02428443     0.0001321626   0.0001321626   0.0001321626   0.0001321626  
0.02511625     0.0001318511   0.0001318511   0.0001318511   0.0001318511  
0.02595019     0.00013154     0.00013154     0.00013154     0.00013154    
0.02678629     0.0001312294   0.0001312294   0.0001312294   0.0001312294  
0.02762526     0.0001309188   0.0001309188   0.0001309188   0.0001309188  
0.02846715     0.0001306085   0.0001306085   0.0001306085   0.0001306085  
0.02931196     0.0001302982   0.0001302982   0.0001302982   0.0001302982  
0.03015898     0.0001299884   0.0001299884   0.0001299884   0.0001299884  
0.03100897     0.0001296787   0.0001296787   0.0001296787   0.0001296787  
0.03186121     0.0001293695   0.0001293695   0.0001293695   0.0001293695  
0.0327157      0.0001290607   0.0001290607   0.0001290607   0.0001290607  
0.03357322     0.000128752    0.000128752    0.000128752    0.000128752   
0.03443303     0.0001284437   0.0001284437   0.0001284437   0.0001284437  
0.03529514     0.0001281359   0.0001281359   0.0001281359   0.0001281359  
0.03615958     0.0001278284   0.0001278284   0.0001278284   0.0001278284  
0.03702634     0.0001275214   0.0001275214   0.0001275214   0.0001275214  
0.03789545     0.0001272148   0.0001272148   0.0001272148   0.0001272148  
0.03876692     0.0001269086   0.0001269086   0.0001269086   0.0001269086  
0.03964077     0.0001266029   0.0001266029   0.0001266029   0.0001266029  
0.04051541     0.0001262981   0.0001262981   0.0001262981   0.0001262981  
0.04139245     0.0001259937   0.0001259937   0.0001259937   0.0001259937  
0.04227111     0.00012569     0.00012569     0.00012569     0.00012569    
0.04315218     0.0001253867   0.0001253867   0.0001253867   0.0001253867  
0.04403488     0.0001250841   0.0001250841   0.0001250841   0.0001250841  
0.04491922     0.0001247822   0.0001247822   0.0001247822   0.0001247822  
0.04580519     0.000124481    0.000124481    0.000124481    0.000124481   
0.04669199     0.0001241807   0.0001241807   0.0001241807   0.0001241807  
0.04758044     0.0001238811   0.0001238811   0.0001238811   0.0001238811  
0.04847055     0.0001235822   0.0001235822   0.0001235822   0.0001235822  
0.04936233     0.000123284    0.000123284    0.000123284    0.000123284   
0.05025579     0.0001229865   0.0001229865   0.0001229865   0.0001229865  
0.05115009     0.00012269     0.00012269     0.00012269     0.00012269    
0.05204607     0.0001223941   0.0001223941   0.0001223941   0.0001223941  
0.05294376     0.0001220989   0.0001220989   0.0001220989   0.0001220989  
0.05384144     0.0001218049   0.0001218049   0.0001218049   0.0001218049  
0.05473998     0.0001215119   0.0001215119   0.0001215119   0.0001215119  
0.05564022     0.0001212195   0.0001212195   0.0001212195   0.0001212195  
0.05654219     0.0001209278   0.0001209278   0.0001209278   0.0001209278  
0.05744502     0.0001206371   0.0001206371   0.0001206371   0.0001206371  
0.05834872     0.0001203473   0.0001203473   0.0001203473   0.0001203473  
0.05925328     0.0001200585   0.0001200585   0.0001200585   0.0001200585  
0.06015872     0.0001197706   0.0001197706   0.0001197706   0.0001197706  
0.06106502     0.0001194836   0.0001194836   0.0001194836   0.0001194836  
0.06197221     0.0001191976   0.0001191976   0.0001191976   0.0001191976  
0.06288115     0.0001189122   0.0001189122   0.0001189122   0.0001189122  
0.06379097     0.0001186278   0.0001186278   0.0001186278   0.0001186278  
0.06470168     0.0001183442   0.0001183442   0.0001183442   0.0001183442  
0.06561328     0.0001180617   0.0001180617   0.0001180617   0.0001180617  
0.06652666     0.0001177797   0.0001177797   0.0001177797   0.0001177797  
0.06744093     0.0001174988   0.0001174988   0.0001174988   0.0001174988  
0.06835521     0.000117219    0.000117219    0.000117219    0.000117219   
0.06927038     0.0001169401   0.0001169401   0.0001169401   0.0001169401  
0.07018735     0.0001166619   0.0001166619   0.0001166619   0.0001166619  
0.07110523     0.0001163846   0.0001163846   0.0001163846   0.0001163846  
0.07202402     0.0001161082   0.0001161082   0.0001161082   0.0001161082  
0.07294463     0.0001158325   0.0001158325   0.0001158325   0.0001158325  
0.07386616     0.0001155576   0.0001155576   0.0001155576   0.0001155576  
0.07478768     0.000115284    0.000115284    0.000115284    0.000115284   
0.07571013     0.0001150113   0.0001150113   0.0001150113   0.0001150113  
0.07663442     0.0001147392   0.0001147392   0.0001147392   0.0001147392  
0.07755963     0.000114468    0.000114468    0.000114468    0.000114468   
0.07848578     0.0001141977   0.0001141977   0.0001141977   0.0001141977  
0.07941192     0.0001139286   0.0001139286   0.0001139286   0.0001139286  
0.080339       0.0001136604   0.0001136604   0.0001136604   0.0001136604  
0.08126889     0.0001133926   0.0001133926   0.0001133926   0.0001133926  
0.08219972     0.0001131256   0.0001131256   0.0001131256   0.0001131256  
0.08313056     0.0001128598   0.0001128598   0.0001128598   0.0001128598  
0.08406328     0.0001125947   0.0001125947   0.0001125947   0.0001125947  
0.08499696     0.0001123304   0.0001123304   0.0001123304   0.0001123304  
0.08593159     0.000112067    0.000112067    0.000112067    0.000112067   
0.08686718     0.0001118044   0.0001118044   0.0001118044   0.0001118044  
0.08780372     0.0001115428   0.0001115428   0.0001115428   0.0001115428  
0.08874123     0.000111282    0.000111282    0.000111282    0.000111282   
0.08967971     0.0001110221   0.0001110221   0.0001110221   0.0001110221  
0.09062012     0.0001107629   0.0001107629   0.0001107629   0.0001107629  
0.09156053     0.0001105047   0.0001105047   0.0001105047   0.0001105047  
0.0925029      0.0001102473   0.0001102473   0.0001102473   0.0001102473  
0.09344722     0.0001099904   0.0001099904   0.0001099904   0.0001099904  
0.09439253     0.0001097344   0.0001097344   0.0001097344   0.0001097344  
0.09533883     0.0001094794   0.0001094794   0.0001094794   0.0001094794  
0.09628513     0.0001092255   0.0001092255   0.0001092255   0.0001092255  
0.09723341     0.0001089723   0.0001089723   0.0001089723   0.0001089723  
0.0981827      0.00010872     0.00010872     0.00010872     0.00010872    
0.09913398     0.0001084684   0.0001084684   0.0001084684   0.0001084684  
0.1000863      0.0001082176   0.0001082176   0.0001082176   0.0001082176  
0.1010396      0.0001079679   0.0001079679   0.0001079679   0.0001079679  
0.1019939      0.000107719    0.000107719    0.000107719    0.000107719   
0.1029492      0.000107471    0.000107471    0.000107471    0.000107471   
0.1039055      0.000107224    0.000107224    0.000107224    0.000107224   
0.1048629      0.0001069779   0.0001069779   0.0001069779   0.0001069779  
0.1058223      0.0001067324   0.0001067324   0.0001067324   0.0001067324  
0.1067828      0.0001064879   0.0001064879   0.0001064879   0.0001064879  
0.1077443      0.0001062442   0.0001062442   0.0001062442   0.0001062442  
0.1087068      0.0001060015   0.0001060015   0.0001060015   0.0001060015  
0.1096703      0.0001057597   0.0001057597   0.0001057597   0.0001057597  
0.1106349      0.0001055188   0.0001055188   0.0001055188   0.0001055188  
0.1116016      0.0001052785   0.0001052785   0.0001052785   0.0001052785  
0.1125694      0.0001050391   0.0001050391   0.0001050391   0.0001050391  
0.1135382      0.0001048007   0.0001048007   0.0001048007   0.0001048007  
0.1145081      0.0001045631   0.0001045631   0.0001045631   0.0001045631  
0.115479       0.0001043265   0.0001043265   0.0001043265   0.0001043265  
0.1164521      0.0001040905   0.0001040905   0.0001040905   0.0001040905  
0.1174262      0.0001038554   0.0001038554   0.0001038554   0.0001038554  
0.1184025      0.0001036209   0.0001036209   0.0001036209   0.0001036209  
0.1193799      0.0001033873   0.0001033873   0.0001033873   0.0001033873  
0.1203573      0.0001031549   0.0001031549   0.0001031549   0.0001031549  
0.1213368      0.0001029231   0.0001029231   0.0001029231   0.0001029231  
0.1223186      0.000102692    0.000102692    0.000102692    0.000102692   
0.1233025      0.0001024614   0.0001024614   0.0001024614   0.0001024614  
0.1242876      0.0001022318   0.0001022318   0.0001022318   0.0001022318  
0.1252738      0.000102003    0.000102003    0.000102003    0.000102003   
0.126261       0.0001017751   0.0001017751   0.0001017751   0.0001017751  
0.1272494      0.0001015481   0.0001015481   0.0001015481   0.0001015481  
0.1282389      0.000101322    0.000101322    0.000101322    0.000101322   
0.1292296      0.0001010967   0.0001010967   0.0001010967   0.0001010967  
0.1302202      0.0001008726   0.0001008726   0.0001008726   0.0001008726  
0.1312131      0.000100649    0.000100649    0.000100649    0.000100649   
0.1322083      0.0001004261   0.0001004261   0.0001004261   0.0001004261  
0.1332046      0.0001002041   0.0001002041   0.0001002041   0.0001002041  
0.1342032      9.998258e-05   9.998258e-05   9.998258e-05   9.998258e-05  
0.135203       9.976196e-05   9.976196e-05   9.976196e-05   9.976196e-05  
0.1362051      9.954194e-05   9.954194e-05   9.954194e-05   9.954194e-05  
0.1372083      9.932275e-05   9.932275e-05   9.932275e-05   9.932275e-05  
0.1382127      9.910439e-05   9.910439e-05   9.910439e-05   9.910439e-05  
0.1392183      9.888687e-05   9.888687e-05   9.888687e-05   9.888687e-05  
0.1402263      9.866992e-05   9.866992e-05   9.866992e-05   9.866992e-05  
0.1412366      9.845354e-05   9.845354e-05   9.845354e-05   9.845354e-05  
0.1422481      9.823798e-05   9.823798e-05   9.823798e-05   9.823798e-05  
0.1432608      9.802322e-05   9.802322e-05   9.802322e-05   9.802322e-05  
0.1442746      9.780927e-05   9.780927e-05   9.780927e-05   9.780927e-05  
0.1452897      9.759611e-05   9.759611e-05   9.759611e-05   9.759611e-05  
0.146306       9.738374e-05   9.738374e-05   9.738374e-05   9.738374e-05  
0.1473236      9.717215e-05   9.717215e-05   9.717215e-05   9.717215e-05  
0.1483423      9.696133e-05   9.696133e-05   9.696133e-05   9.696133e-05  
0.1493622      9.675129e-05   9.675129e-05   9.675129e-05   9.675129e-05  
0.1503834      9.654199e-05   9.654199e-05   9.654199e-05   9.654199e-05  
0.151407       9.633318e-05   9.633318e-05   9.633318e-05   9.633318e-05  
0.1524319      9.612511e-05   9.612511e-05   9.612511e-05   9.612511e-05  
0.153458       9.591778e-05   9.591778e-05   9.591778e-05   9.591778e-05  
0.1544866      9.571091e-05   9.571091e-05   9.571091e-05   9.571091e-05  
0.1555165      9.550477e-05   9.550477e-05   9.550477e-05   9.550477e-05  
0.1565489      9.52991e-05    9.52991e-05    9.52991e-05    9.52991e-05   
0.1575825      9.509413e-05   9.509413e-05   9.509413e-05   9.509413e-05  
0.1586174      9.488985e-05   9.488985e-05   9.488985e-05   9.488985e-05  
0.1596536      9.468626e-05   9.468626e-05   9.468626e-05   9.468626e-05  
0.1606911      9.448335e-05   9.448335e-05   9.448335e-05   9.448335e-05  
0.1617298      9.428109e-05   9.428109e-05   9.428109e-05   9.428109e-05  
0.1627699      9.407948e-05   9.407948e-05   9.407948e-05   9.407948e-05  
0.1638125      9.387827e-05   9.387827e-05   9.387827e-05   9.387827e-05  
0.1648564      9.367771e-05   9.367771e-05   9.367771e-05   9.367771e-05  
0.165903       9.347755e-05   9.347755e-05   9.347755e-05   9.347755e-05  
0.1669508      9.327803e-05   9.327803e-05   9.327803e-05   9.327803e-05  
0.1679987      9.307939e-05   9.307939e-05   9.307939e-05   9.307939e-05  
0.1690479      9.288137e-05   9.288137e-05   9.288137e-05   9.288137e-05  
0.1700997      9.268373e-05   9.268373e-05   9.268373e-05   9.268373e-05  
0.1711529      9.24867e-05    9.24867e-05    9.24867e-05    9.24867e-05   
0.1722074      9.229027e-05   9.229027e-05   9.229027e-05   9.229027e-05  
0.1732632      9.209445e-05   9.209445e-05   9.209445e-05   9.209445e-05  
0.1743205      9.189925e-05   9.189925e-05   9.189925e-05   9.189925e-05  
0.1753804      9.170441e-05   9.170441e-05   9.170441e-05   9.170441e-05  
0.1764417      9.151018e-05   9.151018e-05   9.151018e-05   9.151018e-05  
0.1775043      9.131657e-05   9.131657e-05   9.131657e-05   9.131657e-05  
0.1785683      9.112357e-05   9.112357e-05   9.112357e-05   9.112357e-05  
0.1796351      9.093095e-05   9.093095e-05   9.093095e-05   9.093095e-05  
0.1807033      9.073893e-05   9.073893e-05   9.073893e-05   9.073893e-05  
0.1817715      9.054778e-05   9.054778e-05   9.054778e-05   9.054778e-05  
0.1828411      9.035724e-05   9.035724e-05   9.035724e-05   9.035724e-05  
0.1839135      9.016707e-05   9.016707e-05   9.016707e-05   9.016707e-05  
0.1849873      8.997752e-05   8.997752e-05   8.997752e-05   8.997752e-05  
0.1860625      8.97886e-05    8.97886e-05    8.97886e-05    8.97886e-05   
0.1871406      8.960006e-05   8.960006e-05   8.960006e-05   8.960006e-05  
0.18822        8.941216e-05   8.941216e-05   8.941216e-05   8.941216e-05  
0.189301       8.922491e-05   8.922491e-05   8.922491e-05   8.922491e-05  
0.1903834      8.90383e-05    8.90383e-05    8.90383e-05    8.90383e-05   
0.1914672      8.885233e-05   8.885233e-05   8.885233e-05   8.885233e-05  
0.1925525      8.866701e-05   8.866701e-05   8.866701e-05   8.866701e-05  
0.1936392      8.848234e-05   8.848234e-05   8.848234e-05   8.848234e-05  
0.1947289      8.829808e-05   8.829808e-05   8.829808e-05   8.829808e-05  
0.1958186      8.811474e-05   8.811474e-05   8.811474e-05   8.811474e-05  
0.1969112      8.793183e-05   8.793183e-05   8.793183e-05   8.793183e-05  
0.1980053      8.77496e-05    8.77496e-05    8.77496e-05    8.77496e-05   
0.1991009      8.756805e-05   8.756805e-05   8.756805e-05   8.756805e-05  
0.2001981      8.738719e-05   8.738719e-05   8.738719e-05   8.738719e-05  
0.2012967      8.720701e-05   8.720701e-05   8.720701e-05   8.720701e-05  
0.2023968      8.702753e-05   8.702753e-05   8.702753e-05   8.702753e-05  
0.2034985      8.684875e-05   8.684875e-05   8.684875e-05   8.684875e-05  
0.2046017      8.667068e-05   8.667068e-05   8.667068e-05   8.667068e-05  
0.2057064      8.649331e-05   8.649331e-05   8.649331e-05   8.649331e-05  
0.2068127      8.631665e-05   8.631665e-05   8.631665e-05   8.631665e-05  
0.2079205      8.614072e-05   8.614072e-05   8.614072e-05   8.614072e-05  
0.2090298      8.596551e-05   8.596551e-05   8.596551e-05   8.596551e-05  
0.2101407      8.579102e-05   8.579102e-05   8.579102e-05   8.579102e-05  
0.2112501      8.561774e-05   8.561774e-05   8.561774e-05   8.561774e-05  
0.212361       8.544518e-05   8.544518e-05   8.544518e-05   8.544518e-05  
0.2134735      8.527334e-05   8.527334e-05   8.527334e-05   8.527334e-05  
0.2145875      8.510221e-05   8.510221e-05   8.510221e-05   8.510221e-05  
0.2157032      8.493181e-05   8.493181e-05   8.493181e-05   8.493181e-05  
0.2168204      8.476214e-05   8.476214e-05   8.476214e-05   8.476214e-05  
0.2179376      8.459344e-05   8.459344e-05   8.459344e-05   8.459344e-05  
0.2190533      8.442594e-05   8.442594e-05   8.442594e-05   8.442594e-05  
0.2201657      8.425986e-05   8.425986e-05   8.425986e-05   8.425986e-05  
0.221275       8.409519e-05   8.409519e-05   8.409519e-05   8.409519e-05  
0.2223812      8.393191e-05   8.393191e-05   8.393191e-05   8.393191e-05  
0.2234858      8.376978e-05   8.376978e-05   8.376978e-05   8.376978e-05  
0.2245888      8.360878e-05   8.360878e-05   8.360878e-05   8.360878e-05  
0.2256918      8.344869e-05   8.344869e-05   8.344869e-05   8.344869e-05  
0.2267963      8.328927e-05   8.328927e-05   8.328927e-05   8.328927e-05  
0.2279025      8.313052e-05   8.313052e-05   8.313052e-05   8.313052e-05  
0.2290102      8.297244e-05   8.297244e-05   8.297244e-05   8.297244e-05  
0.2301196      8.281503e-05   8.281503e-05   8.281503e-05   8.281503e-05  
0.2312289      8.265851e-05   8.265851e-05   8.265851e-05   8.265851e-05  
0.2323383      8.250287e-05   8.250287e-05   8.250287e-05   8.250287e-05  
0.2334476      8.23481e-05    8.23481e-05    8.23481e-05    8.23481e-05   
0.2345537      8.219464e-05   8.219464e-05   8.219464e-05   8.219464e-05  
0.2356567      8.204248e-05   8.204248e-05   8.204248e-05   8.204248e-05  
0.2367565      8.189161e-05   8.189161e-05   8.189161e-05   8.189161e-05  
0.2378546      8.174178e-05   8.174178e-05   8.174178e-05   8.174178e-05  
0.2389513      8.159301e-05   8.159301e-05   8.159301e-05   8.159301e-05  
0.2400479      8.144505e-05   8.144505e-05   8.144505e-05   8.144505e-05  
0.2411445      8.129791e-05   8.129791e-05   8.129791e-05   8.129791e-05  
0.2422427      8.115137e-05   8.115137e-05   8.115137e-05   8.115137e-05  
0.2433425      8.100541e-05   8.100541e-05   8.100541e-05   8.100541e-05  
0.2444423      8.086024e-05   8.086024e-05   8.086024e-05   8.086024e-05  
0.2455421      8.071587e-05   8.071587e-05   8.071587e-05   8.071587e-05  
0.2466419      8.05723e-05    8.05723e-05    8.05723e-05    8.05723e-05   
0.24774        8.042973e-05   8.042973e-05   8.042973e-05   8.042973e-05  
0.248835       8.028837e-05   8.028837e-05   8.028837e-05   8.028837e-05  
0.2499268      8.014819e-05   8.014819e-05   8.014819e-05   8.014819e-05  
0.2510155      8.000919e-05   8.000919e-05   8.000919e-05   8.000919e-05  
0.2521025      7.987114e-05   7.987114e-05   7.987114e-05   7.987114e-05  
0.253188       7.973406e-05   7.973406e-05   7.973406e-05   7.973406e-05  
0.2542735      7.959772e-05   7.959772e-05   7.959772e-05   7.959772e-05  
0.255359       7.946213e-05   7.946213e-05   7.946213e-05   7.946213e-05  
0.2564445      7.932728e-05   7.932728e-05   7.932728e-05   7.932728e-05  
0.2575315      7.919298e-05   7.919298e-05   7.919298e-05   7.919298e-05  
0.258617       7.905961e-05   7.905961e-05   7.905961e-05   7.905961e-05  
0.2597041      7.892679e-05   7.892679e-05   7.892679e-05   7.892679e-05  
0.2607912      7.879472e-05   7.879472e-05   7.879472e-05   7.879472e-05  
0.2618782      7.866339e-05   7.866339e-05   7.866339e-05   7.866339e-05  
0.2629637      7.8533e-05     7.8533e-05     7.8533e-05     7.8533e-05    
0.264046       7.840372e-05   7.840372e-05   7.840372e-05   7.840372e-05  
0.2651267      7.827537e-05   7.827537e-05   7.827537e-05   7.827537e-05  
0.2662074      7.814776e-05   7.814776e-05   7.814776e-05   7.814776e-05  
0.2672865      7.802106e-05   7.802106e-05   7.802106e-05   7.802106e-05  
0.2683656      7.78951e-05    7.78951e-05    7.78951e-05    7.78951e-05   
0.2694431      7.777005e-05   7.777005e-05   7.777005e-05   7.777005e-05  
0.2705191      7.764593e-05   7.764593e-05   7.764593e-05   7.764593e-05  
0.2715934      7.752272e-05   7.752272e-05   7.752272e-05   7.752272e-05  
0.2726662      7.740044e-05   7.740044e-05   7.740044e-05   7.740044e-05  
0.2737373      7.727906e-05   7.727906e-05   7.727906e-05   7.727906e-05  
0.274807       7.715859e-05   7.715859e-05   7.715859e-05   7.715859e-05  
0.2758766      7.703885e-05   7.703885e-05   7.703885e-05   7.703885e-05  
0.2769446      7.692002e-05   7.692002e-05   7.692002e-05   7.692002e-05  
0.278011       7.68021e-05    7.68021e-05    7.68021e-05    7.68021e-05   
0.2790759      7.668508e-05   7.668508e-05   7.668508e-05   7.668508e-05  
0.2801408      7.656881e-05   7.656881e-05   7.656881e-05   7.656881e-05  
0.2812041      7.645345e-05   7.645345e-05   7.645345e-05   7.645345e-05  
0.2822658      7.6339e-05     7.6339e-05     7.6339e-05     7.6339e-05    
0.283326       7.622544e-05   7.622544e-05   7.622544e-05   7.622544e-05  
0.2843862      7.611262e-05   7.611262e-05   7.611262e-05   7.611262e-05  
0.2854448      7.60007e-05    7.60007e-05    7.60007e-05    7.60007e-05   
0.2865034      7.588951e-05   7.588951e-05   7.588951e-05   7.588951e-05  
0.2875604      7.577921e-05   7.577921e-05   7.577921e-05   7.577921e-05  
0.2886174      7.566964e-05   7.566964e-05   7.566964e-05   7.566964e-05  
0.2896729      7.556096e-05   7.556096e-05   7.556096e-05   7.556096e-05  
0.2907284      7.5453e-05     7.5453e-05     7.5453e-05     7.5453e-05    
0.2917823      7.534592e-05   7.534592e-05   7.534592e-05   7.534592e-05  
0.2928362      7.523957e-05   7.523957e-05   7.523957e-05   7.523957e-05  
0.2938901      7.513395e-05   7.513395e-05   7.513395e-05   7.513395e-05  
0.2949455      7.50289e-05    7.50289e-05    7.50289e-05    7.50289e-05   
0.296001       7.492457e-05   7.492457e-05   7.492457e-05   7.492457e-05  
0.2970565      7.482095e-05   7.482095e-05   7.482095e-05   7.482095e-05  
0.2981119      7.471804e-05   7.471804e-05   7.471804e-05   7.471804e-05  
0.2991658      7.461602e-05   7.461602e-05   7.461602e-05   7.461602e-05  
0.3002197      7.451471e-05   7.451471e-05   7.451471e-05   7.451471e-05  
0.301272       7.441426e-05   7.441426e-05   7.441426e-05   7.441426e-05  
0.3023243      7.431453e-05   7.431453e-05   7.431453e-05   7.431453e-05  
0.303375       7.421564e-05   7.421564e-05   7.421564e-05   7.421564e-05  
0.304421       7.411788e-05   7.411788e-05   7.411788e-05   7.411788e-05  
0.3054639      7.402109e-05   7.402109e-05   7.402109e-05   7.402109e-05  
0.3065036      7.392527e-05   7.392527e-05   7.392527e-05   7.392527e-05  
0.3075418      7.383027e-05   7.383027e-05   7.383027e-05   7.383027e-05  
0.3085737      7.37365e-05    7.37365e-05    7.37365e-05    7.37365e-05   
0.3095905      7.364477e-05   7.364477e-05   7.364477e-05   7.364477e-05  
0.3105955      7.355473e-05   7.355473e-05   7.355473e-05   7.355473e-05  
0.3115889      7.346634e-05   7.346634e-05   7.346634e-05   7.346634e-05  
0.3125737      7.337932e-05   7.337932e-05   7.337932e-05   7.337932e-05  
0.3135474      7.329387e-05   7.329387e-05   7.329387e-05   7.329387e-05  
0.3145102      7.320996e-05   7.320996e-05   7.320996e-05   7.320996e-05  
0.3154623      7.312755e-05   7.312755e-05   7.312755e-05   7.312755e-05  
0.3164064      7.304636e-05   7.304636e-05   7.304636e-05   7.304636e-05  
0.3173442      7.296625e-05   7.296625e-05   7.296625e-05   7.296625e-05  
0.3182742      7.288731e-05   7.288731e-05   7.288731e-05   7.288731e-05  
0.319198       7.280942e-05   7.280942e-05   7.280942e-05   7.280942e-05  
0.3201155      7.273257e-05   7.273257e-05   7.273257e-05   7.273257e-05  
0.3210269      7.265672e-05   7.265672e-05   7.265672e-05   7.265672e-05  
0.3219334      7.258178e-05   7.258178e-05   7.258178e-05   7.258178e-05  
0.322835       7.250772e-05   7.250772e-05   7.250772e-05   7.250772e-05  
0.3237331      7.243445e-05   7.243445e-05   7.243445e-05   7.243445e-05  
0.3246289      7.236184e-05   7.236184e-05   7.236184e-05   7.236184e-05  
0.3255222      7.22899e-05    7.22899e-05    7.22899e-05    7.22899e-05   
0.3264132      7.221861e-05   7.221861e-05   7.221861e-05   7.221861e-05  
0.327303       7.214789e-05   7.214789e-05   7.214789e-05   7.214789e-05  
0.3281905      7.207782e-05   7.207782e-05   7.207782e-05   7.207782e-05  
0.3290756      7.20084e-05    7.20084e-05    7.20084e-05    7.20084e-05   
0.3299584      7.193962e-05   7.193962e-05   7.193962e-05   7.193962e-05  
0.3308389      7.187147e-05   7.187147e-05   7.187147e-05   7.187147e-05  
0.3317159      7.180403e-05   7.180403e-05   7.180403e-05   7.180403e-05  
0.3325917      7.173712e-05   7.173712e-05   7.173712e-05   7.173712e-05  
0.3334653      7.167083e-05   7.167083e-05   7.167083e-05   7.167083e-05  
0.3343355      7.160523e-05   7.160523e-05   7.160523e-05   7.160523e-05  
0.3352033      7.154025e-05   7.154025e-05   7.154025e-05   7.154025e-05  
0.3360701      7.147578e-05   7.147578e-05   7.147578e-05   7.147578e-05  
0.3369346      7.141191e-05   7.141191e-05   7.141191e-05   7.141191e-05  
0.3377957      7.134871e-05   7.134871e-05   7.134871e-05   7.134871e-05  
0.3386546      7.12861e-05    7.12861e-05    7.12861e-05    7.12861e-05   
0.3395102      7.122414e-05   7.122414e-05   7.122414e-05   7.122414e-05  
0.3403624      7.116283e-05   7.116283e-05   7.116283e-05   7.116283e-05  
0.3412114      7.110217e-05   7.110217e-05   7.110217e-05   7.110217e-05  
0.342057       7.104215e-05   7.104215e-05   7.104215e-05   7.104215e-05  
0.3429006      7.098268e-05   7.098268e-05   7.098268e-05   7.098268e-05  
0.3437408      7.092383e-05   7.092383e-05   7.092383e-05   7.092383e-05  
0.344579       7.086554e-05   7.086554e-05   7.086554e-05   7.086554e-05  
0.345415       7.080777e-05   7.080777e-05   7.080777e-05   7.080777e-05  