# Probe 0 (0 0 0)
# Probe 1 (0 0.011 0)
# Time         0              1             
0              0              0             
1.199999e-06   5.474721e-05   5.474721e-05  
2.639996e-06   7.406953e-05   7.406953e-05  
4.367991e-06   8.411084e-05   8.411084e-05  
6.441582e-06   9.029164e-05   9.029164e-05  
8.92989e-06    9.447568e-05   9.447568e-05  
1.191586e-05   9.748417e-05   9.748417e-05  
1.549901e-05   9.973825e-05   9.973825e-05  
1.97988e-05    0.0001014776   0.0001014776  
2.495853e-05   0.0001028493   0.0001028493  
3.115017e-05   0.000103949    0.000103949   
3.858013e-05   0.0001048419   0.0001048419  
4.749602e-05   0.0001055741   0.0001055741  
5.819505e-05   0.0001061792   0.0001061792  
7.103374e-05   0.0001066821   0.0001066821  
8.644002e-05   0.0001071021   0.0001071021  
0.0001049275   0.0001074538   0.0001074538  
0.0001271124   0.0001077491   0.0001077491  
0.0001536652   0.0001079967   0.0001079967  
0.000184725    0.0001082011   0.0001082011  
0.0002203792   0.0001083682   0.0001083682  
0.0002607336   0.0001085044   0.0001085044  
0.0003059114   0.0001086151   0.0001086151  
0.0003555141   0.0001087044   0.0001087044  
0.0004066103   0.0001087734   0.0001087734  
0.0004591955   0.0001088275   0.0001088275  
0.0005132598   0.0001088703   0.0001088703  
0.0005685871   0.0001089043   0.0001089043  
0.0006248139   0.0001089312   0.0001089312  
0.0006819145   0.0001089524   0.0001089524  
0.0007398796   0.0001089691   0.0001089691  
0.0007986942   0.0001089819   0.0001089819  
0.0008583444   0.0001089916   0.0001089916  
0.0009183566   0.0001089986   0.0001089986  
0.0009785531   0.0001090034   0.0001090034  
0.001038924    0.0001090062   0.0001090062  
0.00109946     0.0001090074   0.0001090074  
0.001160154    0.0001090073   0.0001090073  
0.001221003    0.0001090059   0.0001090059  
0.001282001    0.0001090035   0.0001090035  
0.001343141    0.0001090002   0.0001090002  
0.001404419    0.000108996    0.000108996   
0.001465834    0.0001089912   0.0001089912  
0.001527376    0.0001089857   0.0001089857  
0.001589045    0.0001089796   0.0001089796  
0.001650835    0.0001089731   0.0001089731  
0.001712748    0.0001089661   0.0001089661  
0.001774781    0.0001089586   0.0001089586  
0.001836929    0.0001089508   0.0001089508  
0.001899194    0.0001089426   0.0001089426  
0.001961575    0.0001089342   0.0001089342  
0.00202407     0.0001089254   0.0001089254  
0.002086674    0.0001089163   0.0001089163  
0.002149388    0.0001089071   0.0001089071  
0.002212213    0.0001088976   0.0001088976  
0.00227515     0.0001088878   0.0001088878  
0.002338193    0.0001088779   0.0001088779  
0.002401344    0.0001088678   0.0001088678  
0.002464603    0.0001088576   0.0001088576  
0.002527967    0.0001088471   0.0001088471  
0.002591436    0.0001088365   0.0001088365  
0.002655009    0.0001088258   0.0001088258  
0.002718685    0.000108815    0.000108815   
0.002782466    0.000108804    0.000108804   
0.002846349    0.0001087929   0.0001087929  
0.002910331    0.0001087817   0.0001087817  
0.002974415    0.0001087704   0.0001087704  
0.003051316    0.0001087567   0.0001087567  
0.003141075    0.0001087406   0.0001087406  
0.003243717    0.0001087219   0.0001087219  
0.003359269    0.0001087008   0.0001087008  
0.003487769    0.000108677    0.000108677   
0.003617726    0.0001086528   0.0001086528  
0.003748074    0.0001086284   0.0001086284  
0.003878816    0.0001086037   0.0001086037  
0.004009954    0.0001085788   0.0001085788  
0.00414149     0.0001085537   0.0001085537  
0.004273409    0.0001085284   0.0001085284  
0.004405714    0.0001085029   0.0001085029  
0.004538407    0.0001084772   0.0001084772  
0.00467149     0.0001084514   0.0001084514  
0.004804947    0.0001084255   0.0001084255  
0.004938782    0.0001083994   0.0001083994  
0.005072978    0.0001083731   0.0001083731  
0.005207537    0.0001083468   0.0001083468  
0.005342442    0.0001083203   0.0001083203  
0.005497615    0.0001082898   0.0001082898  
0.005673136    0.0001082552   0.0001082552  
0.005869062    0.0001082165   0.0001082165  
0.006073996    0.0001081759   0.0001081759  
0.006279735    0.0001081352   0.0001081352  
0.006486244    0.0001080942   0.0001080942  
0.006693485    0.0001080531   0.0001080531  
0.006901463    0.0001080117   0.0001080117  
0.007110141    0.0001079702   0.0001079702  
0.007319523    0.0001079286   0.0001079286  
0.00752957     0.0001078868   0.0001078868  
0.00774033     0.0001078448   0.0001078448  
0.007951719    0.0001078027   0.0001078027  
0.008163741    0.0001077605   0.0001077605  
0.008376399    0.0001077181   0.0001077181  
0.008589697    0.0001076757   0.0001076757  
0.008803593    0.0001076331   0.0001076331  
0.009018092    0.0001075904   0.0001075904  
0.009233195    0.0001075476   0.0001075476  
0.009448861    0.0001075047   0.0001075047  
0.009665091    0.0001074617   0.0001074617  
0.009881889    0.0001074186   0.0001074186  
0.01009921     0.0001073754   0.0001073754  
0.01031706     0.0001073322   0.0001073322  
0.01053544     0.0001072888   0.0001072888  
0.01075434     0.0001072454   0.0001072454  
0.01097374     0.000107202    0.000107202   
0.01119362     0.0001071584   0.0001071584  
0.01141399     0.0001071148   0.0001071148  
0.01163485     0.0001070711   0.0001070711  
0.01185621     0.0001070274   0.0001070274  
0.01207802     0.0001069836   0.0001069836  
0.01230027     0.0001069397   0.0001069397  
0.01252298     0.0001068958   0.0001068958  
0.01274614     0.0001068518   0.0001068518  
0.01296975     0.0001068078   0.0001068078  
0.01319382     0.0001067638   0.0001067638  
0.0134183      0.0001067196   0.0001067196  
0.01364319     0.0001066755   0.0001066755  
0.01386848     0.0001066313   0.0001066313  
0.0140942      0.0001065871   0.0001065871  
0.01432032     0.0001065428   0.0001065428  
0.01454686     0.0001064985   0.0001064985  
0.01477377     0.0001064541   0.0001064541  
0.01500104     0.0001064098   0.0001064098  
0.01522868     0.0001063654   0.0001063654  
0.01545669     0.0001063209   0.0001063209  
0.01568507     0.0001062765   0.0001062765  
0.01591377     0.000106232    0.000106232   
0.01614284     0.0001061875   0.0001061875  
0.01637228     0.000106143    0.000106143   
0.01660205     0.0001060984   0.0001060984  
0.01683219     0.0001060538   0.0001060538  
0.01706266     0.0001060093   0.0001060093  
0.01729345     0.0001059646   0.0001059646  
0.01752462     0.00010592     0.00010592    
0.01775611     0.0001058754   0.0001058754  
0.01798794     0.0001058307   0.0001058307  
0.01822009     0.000105786    0.000105786   
0.01845258     0.0001057413   0.0001057413  
0.01868539     0.0001056966   0.0001056966  
0.01891848     0.0001056519   0.0001056519  
0.01915191     0.0001056071   0.0001056071  
0.01938561     0.0001055624   0.0001055624  
0.01961965     0.0001055176   0.0001055176  
0.01985396     0.0001054729   0.0001054729  
0.02008856     0.0001054281   0.0001054281  
0.0203235      0.0001053833   0.0001053833  
0.02055871     0.0001053385   0.0001053385  
0.02079421     0.0001052938   0.0001052938  
0.02102999     0.000105249    0.000105249   
0.02126606     0.0001052042   0.0001052042  
0.02150241     0.0001051594   0.0001051594  
0.02173905     0.0001051145   0.0001051145  
0.02197598     0.0001050697   0.0001050697  
0.02221319     0.0001050249   0.0001050249  
0.02245063     0.0001049801   0.0001049801  
0.02268836     0.0001049353   0.0001049353  
0.02292638     0.0001048905   0.0001048905  
0.02316463     0.0001048457   0.0001048457  
0.02340312     0.0001048009   0.0001048009  
0.02364189     0.0001047561   0.0001047561  
0.02388091     0.0001047113   0.0001047113  
0.02412015     0.0001046665   0.0001046665  
0.02435969     0.0001046217   0.0001046217  
0.02459946     0.0001045769   0.0001045769  
0.02483947     0.0001045321   0.0001045321  
0.02507972     0.0001044873   0.0001044873  
0.0253202      0.0001044426   0.0001044426  
0.02556092     0.0001043978   0.0001043978  
0.02580188     0.0001043531   0.0001043531  
0.02604308     0.0001043083   0.0001043083  
0.02628452     0.0001042636   0.0001042636  
0.02652625     0.0001042188   0.0001042188  
0.02676823     0.0001041741   0.0001041741  
0.02701045     0.0001041294   0.0001041294  
0.02725291     0.0001040847   0.0001040847  
0.02749561     0.00010404     0.00010404    
0.02773855     0.0001039953   0.0001039953  
0.02798174     0.0001039506   0.0001039506  
0.02822517     0.0001039059   0.0001039059  
0.02846885     0.0001038612   0.0001038612  
0.02871277     0.0001038165   0.0001038165  
0.02895687     0.0001037719   0.0001037719  
0.02920122     0.0001037272   0.0001037272  
0.02944575     0.0001036826   0.0001036826  
0.02969053     0.000103638    0.000103638   
0.02993556     0.0001035934   0.0001035934  
0.03018077     0.0001035488   0.0001035488  
0.03042624     0.0001035042   0.0001035042  
0.03067188     0.0001034596   0.0001034596  
0.03091772     0.0001034151   0.0001034151  
0.0311638      0.0001033705   0.0001033705  
0.03141008     0.000103326    0.000103326   
0.03165654     0.0001032815   0.0001032815  
0.03190325     0.000103237    0.000103237   
0.03215015     0.0001031925   0.0001031925  
0.03239724     0.0001031481   0.0001031481  
0.03264452     0.0001031036   0.0001031036  
0.03289199     0.0001030592   0.0001030592  
0.03313958     0.0001030148   0.0001030148  
0.03338737     0.0001029704   0.0001029704  
0.03363534     0.0001029261   0.0001029261  
0.03388351     0.0001028817   0.0001028817  
0.03413187     0.0001028374   0.0001028374  
0.03438042     0.0001027931   0.0001027931  
0.03462916     0.0001027488   0.0001027488  
0.0348781      0.0001027046   0.0001027046  
0.03512723     0.0001026603   0.0001026603  
0.03537655     0.0001026161   0.0001026161  
0.03562606     0.0001025719   0.0001025719  
0.03587571     0.0001025277   0.0001025277  
0.03612554     0.0001024836   0.0001024836  
0.03637558     0.0001024394   0.0001024394  
0.0366258      0.0001023953   0.0001023953  
0.03687616     0.0001023512   0.0001023512  
0.03712671     0.0001023071   0.0001023071  
0.03737746     0.0001022631   0.0001022631  
0.03762834     0.0001022191   0.0001022191  
0.03787942     0.000102175    0.000102175   
0.03813062     0.0001021311   0.0001021311  
0.03838203     0.0001020871   0.0001020871  
0.03863363     0.0001020432   0.0001020432  
0.03888536     0.0001019993   0.0001019993  
0.03913729     0.0001019554   0.0001019554  
0.03938935     0.0001019115   0.0001019115  
0.03964161     0.0001018677   0.0001018677  
0.03989401     0.0001018238   0.0001018238  
0.0401466      0.00010178     0.00010178    
0.04039933     0.0001017363   0.0001017363  
0.04065225     0.0001016925   0.0001016925  
0.04090531     0.0001016488   0.0001016488  
0.04115857     0.0001016051   0.0001016051  
0.04141196     0.0001015614   0.0001015614  
0.04166549     0.0001015178   0.0001015178  
0.04191922     0.0001014742   0.0001014742  
0.04217309     0.0001014306   0.0001014306  
0.04242715     0.000101387    0.000101387   
0.04268135     0.0001013434   0.0001013434  
0.04293569     0.0001012999   0.0001012999  
0.04319022     0.0001012564   0.0001012564  
0.0434449      0.0001012129   0.0001012129  
0.04369978     0.0001011695   0.0001011695  
0.04395479     0.000101126    0.000101126   
0.04420994     0.0001010826   0.0001010826  
0.04446529     0.0001010393   0.0001010393  
0.04472078     0.0001009959   0.0001009959  
0.04497641     0.0001009526   0.0001009526  
0.04523224     0.0001009093   0.0001009093  
0.04548821     0.000100866    0.000100866   
0.04574432     0.0001008228   0.0001008228  
0.04600057     0.0001007795   0.0001007795  
0.04625695     0.0001007364   0.0001007364  
0.04651347     0.0001006932   0.0001006932  
0.04677013     0.0001006501   0.0001006501  
0.04702692     0.000100607    0.000100607   
0.04728386     0.0001005639   0.0001005639  
0.04754093     0.0001005208   0.0001005208  
0.04779822     0.0001004778   0.0001004778  
0.04805564     0.0001004348   0.0001004348  
0.0483132      0.0001003918   0.0001003918  
0.0485709      0.0001003489   0.0001003489  
0.04882874     0.000100306    0.000100306   
0.04908672     0.0001002631   0.0001002631  
0.04934491     0.0001002202   0.0001002202  
0.04960324     0.0001001774   0.0001001774  
0.04986171     0.0001001346   0.0001001346  
0.05012032     0.0001000918   0.0001000918  
0.05037907     0.000100049    0.000100049   
0.05063797     0.0001000063   0.0001000063  
0.05089693     9.99636e-05    9.99636e-05   
0.05115603     9.992094e-05   9.992094e-05  
0.05141528     9.987831e-05   9.987831e-05  
0.05167467     9.983571e-05   9.983571e-05  
0.05193427     9.979312e-05   9.979312e-05  
0.05219402     9.975056e-05   9.975056e-05  
0.0524539      9.970803e-05   9.970803e-05  
0.05271393     9.966553e-05   9.966553e-05  
0.0529741      9.962305e-05   9.962305e-05  
0.05323442     9.95806e-05    9.95806e-05   
0.05349488     9.953818e-05   9.953818e-05  
0.05375548     9.949579e-05   9.949579e-05  
0.05401622     9.945343e-05   9.945343e-05  
0.05427711     9.941109e-05   9.941109e-05  
0.05453807     9.936879e-05   9.936879e-05  
0.05479918     9.932652e-05   9.932652e-05  
0.05506043     9.928428e-05   9.928428e-05  
0.05532182     9.924207e-05   9.924207e-05  
0.05558336     9.919988e-05   9.919988e-05  
0.05584505     9.915772e-05   9.915772e-05  
0.05610687     9.911559e-05   9.911559e-05  
0.05636885     9.907348e-05   9.907348e-05  
0.05663097     9.903141e-05   9.903141e-05  
0.05689323     9.898936e-05   9.898936e-05  
0.05715565     9.894733e-05   9.894733e-05  
0.0574182      9.890534e-05   9.890534e-05  
0.05768083     9.886338e-05   9.886338e-05  
0.05794361     9.882145e-05   9.882145e-05  
0.05820653     9.877955e-05   9.877955e-05  
0.05846961     9.873768e-05   9.873768e-05  
0.05873282     9.869583e-05   9.869583e-05  
0.05899619     9.865401e-05   9.865401e-05  
0.05925963     9.861223e-05   9.861223e-05  
0.05952321     9.857047e-05   9.857047e-05  
0.05978695     9.852874e-05   9.852874e-05  
0.06005083     9.848704e-05   9.848704e-05  
0.06031486     9.844537e-05   9.844537e-05  
0.06057904     9.840372e-05   9.840372e-05  
0.06084337     9.83621e-05    9.83621e-05   
0.06110785     9.83205e-05    9.83205e-05   
0.0613724      9.827895e-05   9.827895e-05  
0.0616371      9.823742e-05   9.823742e-05  
0.06190195     9.819591e-05   9.819591e-05  
0.06216695     9.815444e-05   9.815444e-05  
0.0624321      9.811299e-05   9.811299e-05  
0.06269739     9.807156e-05   9.807156e-05  
0.06296277     9.803018e-05   9.803018e-05  
0.06322829     9.798882e-05   9.798882e-05  
0.06349397     9.794749e-05   9.794749e-05  
0.0637598      9.790618e-05   9.790618e-05  
0.0640257      9.786491e-05   9.786491e-05  
0.06429175     9.782367e-05   9.782367e-05  
0.06455795     9.778246e-05   9.778246e-05  
0.06482431     9.774127e-05   9.774127e-05  
0.06509074     9.770011e-05   9.770011e-05  
0.06535733     9.765899e-05   9.765899e-05  
0.06562406     9.761789e-05   9.761789e-05  
0.06589095     9.757681e-05   9.757681e-05  
0.06615799     9.753577e-05   9.753577e-05  
0.06642519     9.749474e-05   9.749474e-05  
0.06669246     9.745376e-05   9.745376e-05  
0.06695988     9.74128e-05    9.74128e-05   
0.06722738     9.737188e-05   9.737188e-05  
0.06749503     9.733098e-05   9.733098e-05  
0.06776284     9.729011e-05   9.729011e-05  
0.0680308      9.724927e-05   9.724927e-05  
0.06829884     9.720846e-05   9.720846e-05  
0.06856703     9.716768e-05   9.716768e-05  
0.06883538     9.712693e-05   9.712693e-05  
0.06910388     9.708619e-05   9.708619e-05  
0.06937246     9.70455e-05    9.70455e-05   
0.06964119     9.700483e-05   9.700483e-05  
0.06991008     9.696419e-05   9.696419e-05  
0.07017905     9.692359e-05   9.692359e-05  
0.07044818     9.688301e-05   9.688301e-05  
0.07071745     9.684245e-05   9.684245e-05  
0.07098689     9.680192e-05   9.680192e-05  
0.0712564      9.676143e-05   9.676143e-05  
0.07152607     9.672096e-05   9.672096e-05  
0.0717959      9.668052e-05   9.668052e-05  
0.07206588     9.66401e-05    9.66401e-05   
0.07233595     9.659972e-05   9.659972e-05  
0.07260617     9.655936e-05   9.655936e-05  
0.07287654     9.651903e-05   9.651903e-05  
0.07314708     9.647872e-05   9.647872e-05  
0.07341769     9.643845e-05   9.643845e-05  
0.07368846     9.639821e-05   9.639821e-05  
0.07395932     9.6358e-05     9.6358e-05    
0.07423033     9.631782e-05   9.631782e-05  
0.07450149     9.627766e-05   9.627766e-05  
0.07477274     9.623753e-05   9.623753e-05  
0.07504415     9.619743e-05   9.619743e-05  
0.07531572     9.615736e-05   9.615736e-05  
0.07558744     9.611731e-05   9.611731e-05  
0.07585925     9.60773e-05    9.60773e-05   
0.07613121     9.603731e-05   9.603731e-05  
0.07640334     9.599734e-05   9.599734e-05  
0.07667555     9.595741e-05   9.595741e-05  
0.07694791     9.591751e-05   9.591751e-05  
0.07722044     9.587763e-05   9.587763e-05  
0.07749305     9.583779e-05   9.583779e-05  
0.07776582     9.579797e-05   9.579797e-05  
0.07803875     9.575817e-05   9.575817e-05  
0.07831184     9.57184e-05    9.57184e-05   
0.07858502     9.567866e-05   9.567866e-05  
0.07885835     9.563895e-05   9.563895e-05  
0.07913177     9.559927e-05   9.559927e-05  
0.07940535     9.555962e-05   9.555962e-05  
0.07967909     9.551999e-05   9.551999e-05  
0.07995292     9.54804e-05    9.54804e-05   
0.0802269      9.544083e-05   9.544083e-05  
0.08050105     9.540128e-05   9.540128e-05  
0.08077528     9.536177e-05   9.536177e-05  
0.08104968     9.532228e-05   9.532228e-05  
0.08132424     9.528282e-05   9.528282e-05  
0.08159888     9.524339e-05   9.524339e-05  
0.08187369     9.520399e-05   9.520399e-05  
0.08214866     9.516461e-05   9.516461e-05  
0.08242371     9.512526e-05   9.512526e-05  
0.08269893     9.508594e-05   9.508594e-05  
0.08297431     9.504664e-05   9.504664e-05  
0.08324978     9.500738e-05   9.500738e-05  
0.08352532     9.496815e-05   9.496815e-05  
0.08380096     9.492895e-05   9.492895e-05  
0.08407667     9.488979e-05   9.488979e-05  
0.08435255     9.485066e-05   9.485066e-05  
0.08462851     9.481156e-05   9.481156e-05  
0.08490465     9.477248e-05   9.477248e-05  
0.08518086     9.473344e-05   9.473344e-05  
0.08545724     9.469442e-05   9.469442e-05  
0.0857337      9.465543e-05   9.465543e-05  
0.08601033     9.461647e-05   9.461647e-05  
0.08628705     9.457754e-05   9.457754e-05  
0.08656393     9.453863e-05   9.453863e-05  
0.0868409      9.449976e-05   9.449976e-05  
0.08711795     9.446092e-05   9.446092e-05  
0.08739517     9.442211e-05   9.442211e-05  
0.08767247     9.438333e-05   9.438333e-05  
0.08794994     9.434457e-05   9.434457e-05  
0.08822758     9.430584e-05   9.430584e-05  
0.08850531     9.426714e-05   9.426714e-05  
0.0887832      9.422846e-05   9.422846e-05  
0.08906118     9.418981e-05   9.418981e-05  
0.08933933     9.415119e-05   9.415119e-05  
0.08961757     9.41126e-05    9.41126e-05   
0.08989597     9.407404e-05   9.407404e-05  
0.09017455     9.40355e-05    9.40355e-05   
0.09045321     9.399699e-05   9.399699e-05  
0.09073204     9.39585e-05    9.39585e-05   
0.09101104     9.392003e-05   9.392003e-05  
0.09129013     9.38816e-05    9.38816e-05   
0.09156939     9.384319e-05   9.384319e-05  
0.09184873     9.380482e-05   9.380482e-05  
0.09212825     9.376646e-05   9.376646e-05  
0.09240785     9.372814e-05   9.372814e-05  
0.09268763     9.368984e-05   9.368984e-05  
0.09296758     9.365157e-05   9.365157e-05  
0.09324761     9.361332e-05   9.361332e-05  
0.09352782     9.35751e-05    9.35751e-05   
0.0938082      9.35369e-05    9.35369e-05   
0.09408867     9.349873e-05   9.349873e-05  
0.09436931     9.346059e-05   9.346059e-05  
0.09465004     9.342248e-05   9.342248e-05  
0.09493094     9.338439e-05   9.338439e-05  
0.09521202     9.334632e-05   9.334632e-05  
0.09549318     9.330828e-05   9.330828e-05  
0.09577452     9.327027e-05   9.327027e-05  
0.09605604     9.323228e-05   9.323228e-05  
0.09633764     9.319432e-05   9.319432e-05  
0.09661942     9.315638e-05   9.315638e-05  
0.09690137     9.311846e-05   9.311846e-05  
0.09718341     9.308058e-05   9.308058e-05  
0.09746563     9.304271e-05   9.304271e-05  
0.09774794     9.300488e-05   9.300488e-05  
0.09803042     9.296707e-05   9.296707e-05  
0.09831299     9.29293e-05    9.29293e-05   
0.09859574     9.289154e-05   9.289154e-05  
0.09887858     9.285382e-05   9.285382e-05  
0.0991616      9.281612e-05   9.281612e-05  
0.0994447      9.277845e-05   9.277845e-05  
0.09972798     9.27408e-05    9.27408e-05   
0.1000114      9.270317e-05   9.270317e-05  
0.100295       9.266558e-05   9.266558e-05  
0.1005787      9.2628e-05     9.2628e-05    
0.1008626      9.259045e-05   9.259045e-05  
0.1011466      9.255292e-05   9.255292e-05  
0.1014308      9.251542e-05   9.251542e-05  
0.1017152      9.247794e-05   9.247794e-05  
0.1019996      9.244049e-05   9.244049e-05  
0.1022842      9.240307e-05   9.240307e-05  
0.102569       9.236566e-05   9.236566e-05  
0.1028539      9.232828e-05   9.232828e-05  
0.103139       9.229093e-05   9.229093e-05  
0.1034243      9.225359e-05   9.225359e-05  
0.1037096      9.221629e-05   9.221629e-05  
0.1039952      9.217901e-05   9.217901e-05  
0.1042809      9.214175e-05   9.214175e-05  
0.1045668      9.21045e-05    9.21045e-05   
0.1048529      9.206728e-05   9.206728e-05  
0.105139       9.203009e-05   9.203009e-05  
0.1054254      9.199292e-05   9.199292e-05  
0.1057119      9.195577e-05   9.195577e-05  
0.1059987      9.191864e-05   9.191864e-05  
0.1062856      9.188153e-05   9.188153e-05  
0.1065726      9.184445e-05   9.184445e-05  
0.1068597      9.180739e-05   9.180739e-05  
0.107147       9.177036e-05   9.177036e-05  
0.1074345      9.173336e-05   9.173336e-05  
0.107722       9.169638e-05   9.169638e-05  
0.1080098      9.165942e-05   9.165942e-05  
0.1082977      9.162249e-05   9.162249e-05  
0.1085858      9.158557e-05   9.158557e-05  
0.108874       9.154868e-05   9.154868e-05  
0.1091624      9.151181e-05   9.151181e-05  
0.109451       9.147497e-05   9.147497e-05  
0.1097397      9.143814e-05   9.143814e-05  
0.1100286      9.140134e-05   9.140134e-05  
0.1103177      9.136457e-05   9.136457e-05  
0.1106069      9.132781e-05   9.132781e-05  
0.1108962      9.129108e-05   9.129108e-05  
0.1111857      9.125437e-05   9.125437e-05  
0.1114754      9.121769e-05   9.121769e-05  
0.1117652      9.118103e-05   9.118103e-05  
0.1120552      9.114439e-05   9.114439e-05  
0.1123454      9.110777e-05   9.110777e-05  
0.1126358      9.107117e-05   9.107117e-05  
0.1129262      9.10346e-05    9.10346e-05   
0.1132169      9.099805e-05   9.099805e-05  
0.1135076      9.096153e-05   9.096153e-05  
0.1137986      9.092503e-05   9.092503e-05  
0.1140897      9.088855e-05   9.088855e-05  
0.1143809      9.08521e-05    9.08521e-05   
0.1146723      9.081566e-05   9.081566e-05  
0.114964       9.077925e-05   9.077925e-05  
0.1152557      9.074287e-05   9.074287e-05  
0.1155476      9.07065e-05    9.07065e-05   
0.1158396      9.067017e-05   9.067017e-05  
0.1161317      9.063385e-05   9.063385e-05  
0.1164241      9.059756e-05   9.059756e-05  
0.1167166      9.056129e-05   9.056129e-05  
0.1170093      9.052504e-05   9.052504e-05  
0.117302       9.048882e-05   9.048882e-05  
0.117595       9.045263e-05   9.045263e-05  
0.1178881      9.041646e-05   9.041646e-05  
0.1181812      9.038032e-05   9.038032e-05  
0.1184746      9.03442e-05    9.03442e-05   
0.1187681      9.030809e-05   9.030809e-05  
0.1190618      9.027202e-05   9.027202e-05  
0.1193556      9.023597e-05   9.023597e-05  
0.1196497      9.019993e-05   9.019993e-05  
0.1199438      9.016392e-05   9.016392e-05  
0.1202381      9.012794e-05   9.012794e-05  
0.1205327      9.009197e-05   9.009197e-05  
0.1208273      9.005603e-05   9.005603e-05  
0.1211221      9.00201e-05    9.00201e-05   
0.1214171      8.99842e-05    8.99842e-05   
0.1217123      8.994832e-05   8.994832e-05  
0.1220076      8.991247e-05   8.991247e-05  
0.122303       8.987664e-05   8.987664e-05  
0.1225986      8.984083e-05   8.984083e-05  
0.1228943      8.980505e-05   8.980505e-05  
0.1231903      8.976929e-05   8.976929e-05  
0.1234863      8.973355e-05   8.973355e-05  
0.1237825      8.969784e-05   8.969784e-05  
0.1240788      8.966215e-05   8.966215e-05  
0.1243753      8.962648e-05   8.962648e-05  
0.1246721      8.959083e-05   8.959083e-05  
0.1249689      8.955521e-05   8.955521e-05  
0.1252659      8.95196e-05    8.95196e-05   
0.125563       8.948403e-05   8.948403e-05  
0.1258604      8.944847e-05   8.944847e-05  
0.1261578      8.941294e-05   8.941294e-05  
0.1264554      8.937743e-05   8.937743e-05  
0.1267531      8.934195e-05   8.934195e-05  
0.1270511      8.930648e-05   8.930648e-05  
0.1273491      8.927104e-05   8.927104e-05  
0.1276474      8.923563e-05   8.923563e-05  
0.1279457      8.920023e-05   8.920023e-05  
0.1282442      8.916486e-05   8.916486e-05  
0.1285429      8.912952e-05   8.912952e-05  
0.1288417      8.909419e-05   8.909419e-05  
0.1291407      8.905889e-05   8.905889e-05  
0.1294399      8.902361e-05   8.902361e-05  
0.1297392      8.898834e-05   8.898834e-05  
0.1300387      8.89531e-05    8.89531e-05   
0.1303384      8.891788e-05   8.891788e-05  
0.1306382      8.888269e-05   8.888269e-05  
0.1309381      8.884752e-05   8.884752e-05  
0.1312382      8.881237e-05   8.881237e-05  
0.1315385      8.877724e-05   8.877724e-05  
0.1318389      8.874214e-05   8.874214e-05  
0.1321395      8.870705e-05   8.870705e-05  
0.1324404      8.867199e-05   8.867199e-05  
0.1327413      8.863695e-05   8.863695e-05  
0.1330423      8.860193e-05   8.860193e-05  
0.1333435      8.856694e-05   8.856694e-05  
0.1336449      8.853197e-05   8.853197e-05  
0.1339464      8.849702e-05   8.849702e-05  
0.1342481      8.84621e-05    8.84621e-05   
0.13455        8.842719e-05   8.842719e-05  
0.1348519      8.839231e-05   8.839231e-05  
0.1351541      8.835745e-05   8.835745e-05  
0.1354564      8.832261e-05   8.832261e-05  
0.1357589      8.828779e-05   8.828779e-05  
0.1360616      8.825299e-05   8.825299e-05  
0.1363644      8.821821e-05   8.821821e-05  
0.1366675      8.818346e-05   8.818346e-05  
0.1369706      8.814872e-05   8.814872e-05  
0.1372739      8.811401e-05   8.811401e-05  
0.1375774      8.807932e-05   8.807932e-05  
0.1378811      8.804465e-05   8.804465e-05  
0.1381849      8.801e-05      8.801e-05     
0.1384887      8.797539e-05   8.797539e-05  
0.1387928      8.794078e-05   8.794078e-05  
0.139097       8.790621e-05   8.790621e-05  
0.1394015      8.787165e-05   8.787165e-05  
0.139706       8.783712e-05   8.783712e-05  
0.1400107      8.780261e-05   8.780261e-05  
0.1403156      8.776812e-05   8.776812e-05  
0.1406207      8.773365e-05   8.773365e-05  
0.1409258      8.76992e-05    8.76992e-05   
0.1412312      8.766477e-05   8.766477e-05  
0.1415367      8.763037e-05   8.763037e-05  
0.1418425      8.759598e-05   8.759598e-05  
0.1421483      8.756162e-05   8.756162e-05  
0.1424543      8.752728e-05   8.752728e-05  
0.1427605      8.749296e-05   8.749296e-05  
0.1430669      8.745865e-05   8.745865e-05  
0.1433733      8.742438e-05   8.742438e-05  
0.1436801      8.739012e-05   8.739012e-05  
0.1439869      8.735588e-05   8.735588e-05  
0.1442939      8.732166e-05   8.732166e-05  
0.144601       8.728747e-05   8.728747e-05  
0.1449084      8.725329e-05   8.725329e-05  
0.1452159      8.721914e-05   8.721914e-05  
0.1455236      8.718501e-05   8.718501e-05  
0.1458314      8.71509e-05    8.71509e-05   
0.1461393      8.711681e-05   8.711681e-05  
0.1464475      8.708275e-05   8.708275e-05  
0.1467557      8.704871e-05   8.704871e-05  
0.1470642      8.701468e-05   8.701468e-05  
0.1473728      8.698068e-05   8.698068e-05  
0.1476816      8.694669e-05   8.694669e-05  
0.1479905      8.691273e-05   8.691273e-05  
0.1482997      8.687879e-05   8.687879e-05  
0.1486089      8.684487e-05   8.684487e-05  
0.1489184      8.681097e-05   8.681097e-05  
0.149228       8.677709e-05   8.677709e-05  
0.1495378      8.674323e-05   8.674323e-05  
0.1498478      8.670939e-05   8.670939e-05  
0.1501579      8.667556e-05   8.667556e-05  
0.1504682      8.664177e-05   8.664177e-05  
0.1507786      8.6608e-05     8.6608e-05    
0.1510892      8.657424e-05   8.657424e-05  
0.1513999      8.654051e-05   8.654051e-05  
0.1517109      8.650679e-05   8.650679e-05  
0.1520219      8.64731e-05    8.64731e-05   
0.1523331      8.643944e-05   8.643944e-05  
0.1526445      8.640579e-05   8.640579e-05  
0.1529561      8.637216e-05   8.637216e-05  
0.1532678      8.633855e-05   8.633855e-05  
0.1535797      8.630497e-05   8.630497e-05  
0.1538918      8.627139e-05   8.627139e-05  
0.154204       8.623785e-05   8.623785e-05  
0.1545164      8.620433e-05   8.620433e-05  
0.1548289      8.617082e-05   8.617082e-05  
0.1551416      8.613734e-05   8.613734e-05  
0.1554545      8.610387e-05   8.610387e-05  
0.1557675      8.607043e-05   8.607043e-05  
0.1560808      8.6037e-05     8.6037e-05    
0.1563942      8.60036e-05    8.60036e-05   
0.1567077      8.597022e-05   8.597022e-05  
0.1570214      8.593686e-05   8.593686e-05  
0.1573352      8.590352e-05   8.590352e-05  
0.1576492      8.587021e-05   8.587021e-05  
0.1579634      8.583691e-05   8.583691e-05  
0.1582777      8.580363e-05   8.580363e-05  
0.1585922      8.577037e-05   8.577037e-05  
0.1589069      8.573713e-05   8.573713e-05  
0.1592217      8.570392e-05   8.570392e-05  
0.1595367      8.567073e-05   8.567073e-05  
0.1598518      8.563755e-05   8.563755e-05  
0.1601672      8.560439e-05   8.560439e-05  
0.1604827      8.557126e-05   8.557126e-05  
0.1607983      8.553815e-05   8.553815e-05  
0.1611141      8.550505e-05   8.550505e-05  
0.1614301      8.547198e-05   8.547198e-05  
0.1617463      8.543892e-05   8.543892e-05  