/*--------------------------------*- C++ -*----------------------------------*\
  =========                 |
  \\      /  F ield         | OpenFOAM: The Open Source CFD Toolbox
   \\    /   O peration     | Website:  https://openfoam.org
    \\  /    A nd           | Version:  8
     \\/     M anipulation  |
\*---------------------------------------------------------------------------*/
FoamFile
{
    version     2.0;
    format      ascii;
    class       featureEdgeMesh;
    location    "constant/triSurface";
    object      Modified_100mL_Vessel.eMesh;
}
// * * * * * * * * * * * * * * * * * * * * * * * * * * * * * * * * * * * * * //


// points:

292
(
(0.001152584 0.001152584 0.0165)
(0.001411621 0.000815 0.0165)
(0.001574459 0.000421875 0.0165)
(0.00163 9.234828e-19 0.0165)
(-0.001411621 0.000815 0.0165)
(-0.001152584 0.001152584 0.0165)
(-0.001411621 -0.000815 0.0165)
(-0.001574459 -0.000421875 0.0165)
(-0.001152584 -0.001152584 0.0165)
(-0.00163 -3.992348e-19 0.0165)
(-0.001574459 0.000421875 0.0165)
(1.747157e-18 -0.00163 0.0165)
(-0.000421875 -0.001574459 0.0165)
(-0.000815 -0.001411621 0.0165)
(-0.000815 0.001411621 0.0165)
(-0.000421875 0.001574459 0.0165)
(-4.617414e-19 0.00163 0.0165)
(0.001574459 -0.000421875 0.0165)
(0.001411621 -0.000815 0.0165)
(0.001152584 -0.001152584 0.0165)
(0.000815 -0.001411621 0.0165)
(0.000421875 -0.001574459 0.0165)
(0.000421875 0.001574459 0.0165)
(0.000815 0.001411621 0.0165)
(0.001411621 0.000815 0.01324)
(0.001574459 0.000421875 0.01324)
(0.00163 9.234828e-19 0.01324)
(0.001574459 -0.000421875 0.01324)
(0.001411621 -0.000815 0.01324)
(0.001152584 -0.001152584 0.01324)
(0.000815 -0.001411621 0.01324)
(0.000421875 -0.001574459 0.01324)
(1.747157e-18 -0.00163 0.01324)
(-0.000421875 -0.001574459 0.01324)
(-0.000815 -0.001411621 0.01324)
(-0.001152584 -0.001152584 0.01324)
(-0.001411621 -0.000815 0.01324)
(-0.001574459 -0.000421875 0.01324)
(-0.00163 0 0.01324)
(-0.001574459 0.000421875 0.01324)
(-0.001411621 0.000815 0.01324)
(-0.001152584 0.001152584 0.01324)
(-0.000815 0.001411621 0.01324)
(-0.000421875 0.001574459 0.01324)
(-4.617414e-19 0.00163 0.01324)
(0.000421875 0.001574459 0.01324)
(0.000815 0.001411621 0.01324)
(0.001152584 0.001152584 0.01324)
(0.001152584 0.001152584 -0.0165)
(0.000815 0.001411621 -0.0165)
(0.000421875 0.001574459 -0.0165)
(4.617414e-19 0.00163 -0.0165)
(0.001411621 0.000815 -0.0165)
(-0.001152584 -0.001152584 -0.0165)
(-0.000815 -0.001411621 -0.0165)
(-0.000421875 -0.001574459 -0.0165)
(-1.747157e-18 -0.00163 -0.0165)
(0.000421875 -0.001574459 -0.0165)
(0.000815 -0.001411621 -0.0165)
(0.001152584 -0.001152584 -0.0165)
(-0.00163 9.234828e-19 -0.0165)
(-0.001574459 -0.000421875 -0.0165)
(-0.001411621 -0.000815 -0.0165)
(0.001411621 -0.000815 -0.0165)
(0.001574459 -0.000421875 -0.0165)
(-0.000421875 0.001574459 -0.0165)
(-0.000815 0.001411621 -0.0165)
(-0.001152584 0.001152584 -0.0165)
(0.00163 -3.992348e-19 -0.0165)
(0.001574459 0.000421875 -0.0165)
(-0.001411621 0.000815 -0.0165)
(-0.001574459 0.000421875 -0.0165)
(0.001152584 0.001152584 -0.01324)
(0.000815 0.001411621 -0.01324)
(0.001411621 0.000815 -0.01324)
(0.001574459 0.000421875 -0.01324)
(0.00163 0 -0.01324)
(0.001574459 -0.000421875 -0.01324)
(0.001411621 -0.000815 -0.01324)
(0.001152584 -0.001152584 -0.01324)
(0.000815 -0.001411621 -0.01324)
(0.000421875 -0.001574459 -0.01324)
(-1.747157e-18 -0.00163 -0.01324)
(-0.000421875 -0.001574459 -0.01324)
(-0.000815 -0.001411621 -0.01324)
(-0.001152584 -0.001152584 -0.01324)
(-0.001411621 -0.000815 -0.01324)
(-0.001574459 -0.000421875 -0.01324)
(-0.00163 9.234828e-19 -0.01324)
(-0.001574459 0.000421875 -0.01324)
(-0.001411621 0.000815 -0.01324)
(-0.001152584 0.001152584 -0.01324)
(-0.000815 0.001411621 -0.01324)
(-0.000421875 0.001574459 -0.01324)
(4.617414e-19 0.00163 -0.01324)
(0.000421875 0.001574459 -0.01324)
(0.003031089 -0.00175 0.01324)
(0.002474874 -0.002474874 0.01324)
(0.00338074 -0.0009058667 0.01324)
(0.0035 0 0.01324)
(0.00338074 0.0009058667 0.01324)
(0.003031089 0.00175 0.01324)
(0.002474874 0.002474874 0.01324)
(0.00175 0.003031089 0.01324)
(0.0009058667 0.00338074 0.01324)
(9.914693e-19 0.0035 0.01324)
(-0.0009058667 0.00338074 0.01324)
(-0.00175 0.003031089 0.01324)
(-0.002474874 0.002474874 0.01324)
(-0.003031089 0.00175 0.01324)
(-0.00338074 0.0009058667 0.01324)
(-0.0035 1.982939e-18 0.01324)
(-0.00338074 -0.0009058667 0.01324)
(-0.003031089 -0.00175 0.01324)
(-0.002474874 -0.002474874 0.01324)
(-0.00175 -0.003031089 0.01324)
(-0.0009058667 -0.00338074 0.01324)
(-3.751564e-18 -0.0035 0.01324)
(0.0009058667 -0.00338074 0.01324)
(0.00175 -0.003031089 0.01324)
(0.002130665 0.002776737 0.01531364)
(0.002474874 0.002474874 0.01530838)
(0.003031089 0.00175 0.01529572)
(0.00338074 0.0009058667 0.01528099)
(0.0035 -1.387779e-17 0.01526518)
(0.00338074 -0.0009058667 0.01524937)
(0.003031089 -0.00175 0.01523463)
(0.002474874 -0.002474874 0.01522198)
(0.002130665 -0.002776737 0.01521671)
(0.00175 -0.003031089 0.01521227)
(0.001339392 -0.003233578 0.01520874)
(-0.00175 -0.003031089 0.01521227)
(-0.002130665 -0.002776737 0.01521671)
(-0.002474874 -0.002474874 0.01522198)
(-0.003031089 -0.00175 0.01523463)
(-0.00338074 -0.0009058667 0.01524937)
(-0.0035 -1.387779e-17 0.01526518)
(-0.00338074 0.0009058667 0.01528099)
(-0.003031089 0.00175 0.01529572)
(-0.002474874 0.002474874 0.01530838)
(-0.002130665 0.002776737 0.01531364)
(-0.00175 0.003031089 0.01531808)
(-0.001339392 0.003233578 0.01532162)
(-0.0009058667 -0.00338074 0.01520617)
(-0.001339392 -0.003233578 0.01520874)
(0.0004568417 0.003470057 0.01532575)
(0.0009058667 0.00338074 0.01532419)
(0.001339392 0.003233578 0.01532162)
(0.00175 0.003031089 0.01531808)
(0.0009058667 -0.00338074 0.01520617)
(0.0004568417 -0.003470057 0.01520461)
(-3.469447e-18 -0.0035 0.01520408)
(-0.0004568417 -0.003470057 0.01520461)
(-0.0009058667 0.00338074 0.01532419)
(-0.0004568417 0.003470057 0.01532575)
(0 0.0035 0.01532627)
(-0.00175 0.003031089 -0.01324)
(-0.002474874 0.002474874 -0.01324)
(-0.0009058667 0.00338074 -0.01324)
(-9.914693e-19 0.0035 -0.01324)
(0.0009058667 0.00338074 -0.01324)
(0.00175 0.003031089 -0.01324)
(0.002474874 0.002474874 -0.01324)
(0.003031089 0.00175 -0.01324)
(0.00338074 0.0009058667 -0.01324)
(0.0035 1.982939e-18 -0.01324)
(0.00338074 -0.0009058667 -0.01324)
(0.003031089 -0.00175 -0.01324)
(0.002474874 -0.002474874 -0.01324)
(0.00175 -0.003031089 -0.01324)
(0.0009058667 -0.00338074 -0.01324)
(3.751564e-18 -0.0035 -0.01324)
(-0.0009058667 -0.00338074 -0.01324)
(-0.00175 -0.003031089 -0.01324)
(-0.002474874 -0.002474874 -0.01324)
(-0.003031089 -0.00175 -0.01324)
(-0.00338074 -0.0009058667 -0.01324)
(-0.0035 0 -0.01324)
(-0.00338074 0.0009058667 -0.01324)
(-0.003031089 0.00175 -0.01324)
(-0.001339392 0.003233578 -0.01532162)
(-0.00175 0.003031089 -0.01531808)
(-0.002130665 0.002776737 -0.01531364)
(-0.002474874 0.002474874 -0.01530838)
(-0.003031089 0.00175 -0.01529572)
(-0.0004568417 -0.003470057 -0.01520461)
(3.469447e-18 -0.0035 -0.01520408)
(-0.0004568417 0.003470057 -0.01532575)
(-0.0009058667 0.00338074 -0.01532419)
(0.00175 -0.003031089 -0.01521227)
(0.002130665 -0.002776737 -0.01521671)
(-0.00338074 0.0009058667 -0.01528099)
(-0.0035 -1.387779e-17 -0.01526518)
(-0.00338074 -0.0009058667 -0.01524937)
(-0.003031089 -0.00175 -0.01523463)
(-0.002474874 -0.002474874 -0.01522198)
(-0.002130665 -0.002776737 -0.01521671)
(0.002474874 -0.002474874 -0.01522198)
(0.003031089 -0.00175 -0.01523463)
(0.00338074 -0.0009058667 -0.01524937)
(0.0035 -1.387779e-17 -0.01526518)
(0.00338074 0.0009058667 -0.01528099)
(0.003031089 0.00175 -0.01529572)
(0.002474874 0.002474874 -0.01530838)
(0.002130665 0.002776737 -0.01531364)
(0.00175 0.003031089 -0.01531808)
(0.001339392 0.003233578 -0.01532162)
(-0.00175 -0.003031089 -0.01521227)
(-0.001339392 -0.003233578 -0.01520874)
(-0.0009058667 -0.00338074 -0.01520617)
(0.0009058667 0.00338074 -0.01532419)
(0.0004568417 0.003470057 -0.01532575)
(0 0.0035 -0.01532627)
(0.0004568417 -0.003470057 -0.01520461)
(0.0009058667 -0.00338074 -0.01520617)
(0.001339392 -0.003233578 -0.01520874)
(0.02183083 0.065 0.0178095)
(0.02013979 0.065 0.018)
(0.02343698 0.065 0.01724754)
(0.02487775 0.065 0.01634229)
(0.02608092 0.065 0.01513912)
(0.02698617 0.065 0.01369835)
(0.02754813 0.065 0.01209219)
(0.02773863 0.065 0.01040116)
(-0.02754813 0.065 0.01209219)
(-0.02773863 0.065 0.01040116)
(-0.02013979 0.065 0.018)
(-0.02183083 0.065 0.0178095)
(-0.02343698 0.065 0.01724754)
(-0.02487775 0.065 0.01634229)
(-0.02608092 0.065 0.01513912)
(-0.02698617 0.065 0.01369835)
(0.02754813 0.065 -0.01209219)
(0.02773863 0.065 -0.01040116)
(0.02698617 0.065 -0.01369835)
(0.02608092 0.065 -0.01513912)
(0.02487775 0.065 -0.01634229)
(0.02343698 0.065 -0.01724754)
(0.02183083 0.065 -0.0178095)
(0.02013979 0.065 -0.018)
(-0.02183083 0.065 -0.0178095)
(-0.02013979 0.065 -0.018)
(-0.02773863 0.065 -0.01040116)
(-0.02754813 0.065 -0.01209219)
(-0.02698617 0.065 -0.01369835)
(-0.02608092 0.065 -0.01513912)
(-0.02487775 0.065 -0.01634229)
(-0.02343698 0.065 -0.01724754)
(0.02243519 0.065 -0.01594314)
(0.0216921 0.065 -0.01619536)
(0.0201393 0.065 -0.01639976)
(0.02613839 0.065 -0.01040067)
(0.02593399 0.065 -0.01195346)
(0.02489878 0.065 -0.01405281)
(0.02438141 0.065 -0.01464278)
(0.02379144 0.065 -0.01516015)
(0.02313899 0.065 -0.01559609)
(0.02568177 0.065 -0.01269656)
(0.02533472 0.065 -0.01340035)
(-0.02568177 0.065 -0.01269656)
(-0.02593399 0.065 -0.01195346)
(-0.02613839 0.065 -0.01040067)
(-0.0201393 0.065 -0.01639976)
(-0.0216921 0.065 -0.01619536)
(-0.02489878 0.065 -0.01405281)
(-0.02533472 0.065 -0.01340035)
(-0.02379144 0.065 -0.01516015)
(-0.02438141 0.065 -0.01464278)
(-0.02243519 0.065 -0.01594314)
(-0.02313899 0.065 -0.01559609)
(0.02568177 0.065 0.01269656)
(0.02593399 0.065 0.01195346)
(0.02613839 0.065 0.01040067)
(0.0216921 0.065 0.01619536)
(0.02243519 0.065 0.01594314)
(0.0201393 0.065 0.01639976)
(0.02489878 0.065 0.01405281)
(0.02533472 0.065 0.01340035)
(0.02313899 0.065 0.01559609)
(0.02379144 0.065 0.01516015)
(0.02438141 0.065 0.01464278)
(-0.02243519 0.065 0.01594314)
(-0.0216921 0.065 0.01619536)
(-0.0201393 0.065 0.01639976)
(-0.02593399 0.065 0.01195346)
(-0.02568177 0.065 0.01269656)
(-0.02613839 0.065 0.01040067)
(-0.02533472 0.065 0.01340035)
(-0.02489878 0.065 0.01405281)
(-0.02438141 0.065 0.01464278)
(-0.02379144 0.065 0.01516015)
(-0.02313899 0.065 0.01559609)
)


// edges:

292
(
(24 25)
(25 26)
(26 27)
(27 28)
(28 29)
(29 30)
(30 31)
(31 32)
(32 33)
(33 34)
(34 35)
(35 36)
(36 37)
(37 38)
(38 39)
(39 40)
(40 41)
(41 42)
(42 43)
(43 44)
(44 45)
(45 46)
(46 47)
(47 24)
(72 73)
(74 72)
(75 74)
(76 75)
(77 76)
(78 77)
(79 78)
(80 79)
(81 80)
(82 81)
(83 82)
(84 83)
(85 84)
(86 85)
(87 86)
(88 87)
(89 88)
(90 89)
(91 90)
(92 91)
(93 92)
(94 93)
(95 94)
(73 95)
(96 97)
(98 96)
(99 98)
(100 99)
(101 100)
(102 101)
(103 102)
(104 103)
(105 104)
(106 105)
(107 106)
(108 107)
(109 108)
(110 109)
(111 110)
(112 111)
(113 112)
(114 113)
(115 114)
(116 115)
(117 116)
(118 117)
(119 118)
(97 119)
(156 157)
(158 156)
(159 158)
(160 159)
(161 160)
(162 161)
(163 162)
(164 163)
(165 164)
(166 165)
(167 166)
(168 167)
(169 168)
(170 169)
(171 170)
(172 171)
(173 172)
(174 173)
(175 174)
(176 175)
(177 176)
(178 177)
(179 178)
(157 179)
(216 217)
(218 216)
(219 218)
(220 219)
(221 220)
(222 221)
(223 222)
(224 225)
(226 227)
(227 228)
(228 229)
(229 230)
(230 231)
(231 224)
(232 233)
(234 232)
(235 234)
(236 235)
(237 236)
(238 237)
(239 238)
(240 241)
(242 243)
(243 244)
(244 245)
(245 246)
(246 247)
(247 240)
(241 239)
(217 226)
(225 242)
(233 223)
(248 249)
(249 250)
(251 252)
(253 254)
(254 255)
(255 256)
(256 248)
(252 257)
(257 258)
(258 253)
(259 260)
(260 261)
(262 263)
(264 265)
(265 259)
(266 267)
(267 264)
(263 268)
(268 269)
(269 266)
(270 271)
(271 272)
(273 274)
(275 273)
(276 277)
(277 270)
(274 278)
(278 279)
(279 280)
(280 276)
(281 282)
(282 283)
(284 285)
(286 284)
(285 287)
(287 288)
(288 289)
(289 290)
(290 291)
(291 281)
(250 262)
(283 275)
(261 286)
(272 251)
(0 1)
(1 2)
(2 3)
(4 5)
(6 7)
(8 6)
(7 9)
(9 10)
(10 4)
(11 12)
(12 13)
(13 8)
(5 14)
(14 15)
(15 16)
(3 17)
(17 18)
(18 19)
(19 20)
(20 21)
(21 11)
(16 22)
(22 23)
(23 0)
(48 49)
(49 50)
(50 51)
(52 48)
(53 54)
(54 55)
(55 56)
(56 57)
(57 58)
(58 59)
(60 61)
(61 62)
(62 53)
(63 64)
(59 63)
(51 65)
(65 66)
(66 67)
(64 68)
(68 69)
(69 52)
(67 70)
(70 71)
(71 60)
(120 121)
(121 122)
(122 123)
(123 124)
(124 125)
(125 126)
(126 127)
(127 128)
(128 129)
(129 130)
(131 132)
(132 133)
(133 134)
(134 135)
(135 136)
(136 137)
(137 138)
(138 139)
(139 140)
(140 141)
(141 142)
(143 144)
(144 131)
(145 146)
(146 147)
(147 148)
(148 120)
(130 149)
(149 150)
(150 151)
(151 152)
(152 143)
(142 153)
(153 154)
(154 155)
(155 145)
(180 181)
(181 182)
(182 183)
(183 184)
(185 186)
(187 188)
(189 190)
(184 191)
(191 192)
(192 193)
(193 194)
(194 195)
(195 196)
(190 197)
(197 198)
(198 199)
(199 200)
(200 201)
(201 202)
(202 203)
(203 204)
(204 205)
(205 206)
(196 207)
(207 208)
(208 209)
(209 185)
(206 210)
(210 211)
(211 212)
(212 187)
(186 213)
(213 214)
(214 215)
(215 189)
(188 180)
)

// * * * * * * * * * * * * * * * * * * * * * * * * * * * * * * * * * * * * * //


// ************************************************************************* //
