# Probe 0 (0 0 0)
# Probe 1 (0 0.011 0)
# Time         0              1             
60             1.518186e-05   1.518186e-05  
