# Probe 0 (0 0 0)
# Probe 1 (0 0.011 0)
# Time         0              1             
0              0              0             
1.199999e-06   0              1.08124e-154  
2.639996e-06   3.417302e-201  4.46742e-148  
4.367991e-06   2.219999e-193  5.208899e-147 
6.441582e-06   1.289719e-191  6.094007e-146 
8.92989e-06    4.991117e-190  3.872461e-144 
1.191586e-05   7.727099e-188  4.128954e-142 
1.549901e-05   2.77976e-185   3.91209e-140  
1.97988e-05    9.320754e-183  3.263678e-138 
2.495853e-05   2.767534e-180  2.457046e-136 
3.115017e-05   7.433062e-178  1.703637e-134 
3.858013e-05   1.840161e-175  1.10541e-132  
4.749602e-05   4.26135e-173   6.799291e-131 
5.819505e-05   9.344784e-171  4.006428e-129 
7.103374e-05   1.959941e-168  2.28063e-127  
8.644002e-05   3.963717e-166  1.26274e-125  
0.0001049275   7.77963e-164   6.838196e-124 
0.0001271124   1.489609e-161  3.638039e-122 
0.0001537338   2.794175e-159  1.907744e-120 
0.0001856788   5.150855e-157  9.88192e-119  
0.0002240123   9.354897e-155  5.059747e-117 
0.0002700107   1.674834e-152  2.55611e-115  
0.0003252078   2.951923e-150  1.266458e-113 
0.0003914421   5.096116e-148  6.068532e-112 
0.0004709212   8.512257e-146  2.75952e-110  
0.0005662961   1.351328e-143  1.212382e-108 
0.0006807395   2.07404e-141   5.221672e-107 
0.0008180652   3.126116e-139  2.258762e-105 
0.000982838    4.745746e-137  1.005482e-103 
0.001180546    7.458668e-135  4.67825e-102  
0.001417795    1.242166e-132  2.282858e-100 
0.001702454    2.214066e-130  1.159595e-98  
0.002043985    4.225264e-128  6.066817e-97  
0.002451314    8.343813e-126  3.158654e-95  
0.00292679     1.509757e-123  1.478134e-93  
0.003473132    2.275348e-121  5.775016e-92  
0.004092862    2.677767e-119  1.846753e-90  
0.004786874    2.407096e-117  4.825267e-89  
0.005540824    1.490185e-115  9.652719e-88  
0.006303446    4.797496e-114  1.223512e-86  
0.007074351    9.325881e-113  1.10535e-85   
0.007851896    1.263376e-111  7.802327e-85  
0.008635584    1.308419e-110  4.571805e-84  
0.009425515    1.101196e-109  2.317662e-83  
0.0102218      7.88784e-109   1.045638e-82  
0.01102389     4.944066e-108  4.277095e-82  
0.01183187     2.774023e-107  1.610276e-81  
0.01264585     1.416438e-106  5.644408e-81  
0.01346591     6.66146e-106   1.858648e-80  
0.01429216     2.916967e-105  5.791149e-80  
0.01512468     1.198849e-104  1.717314e-79  
0.01596358     4.653622e-104  4.870955e-79  
0.01680825     1.712432e-103  1.325589e-78  
0.01765876     6.004404e-103  3.473958e-78  
0.01851521     2.01468e-102   8.794694e-78  
0.01937767     6.492164e-102  2.156939e-77  
0.02024548     2.014124e-101  5.131811e-77  
0.02112026     6.050413e-101  1.189055e-76  
0.02200134     1.762191e-100  2.685263e-76  
0.02288801     4.981408e-100  5.914934e-76  
0.02378035     1.370783e-99   1.272651e-75  
0.02467761     3.6724e-99     2.676337e-75  
0.02557985     9.590567e-99   5.508436e-75  
0.02648713     2.445907e-98   1.111007e-74  
0.02739952     6.093702e-98   2.197819e-74  
0.02831706     1.483885e-97   4.268244e-74  
0.02923896     3.532392e-97   8.140226e-74  
0.03016615     8.239657e-97   1.526999e-73  
0.03109778     1.884901e-96   2.81816e-73   
0.03203392     4.231391e-96   5.121092e-73  
0.03297461     9.33135e-96    9.170007e-73  
0.03391989     2.023001e-95   1.619177e-72  
0.03486982     4.316831e-95   2.821224e-72  
0.03582351     9.064881e-95   4.850968e-72  
0.03678194     1.876045e-94   8.240953e-72  
0.03774419     3.825766e-94   1.383186e-71  
0.03871031     7.693181e-94   2.294938e-71  
0.03968131     1.527972e-93   3.767793e-71  
0.04065625     2.996335e-93   6.120528e-71  
0.04163518     5.802489e-93   9.841741e-71  
0.04261811     1.11004e-92    1.567163e-70  
0.04360409     2.096568e-92   2.470968e-70  
0.04459415     3.914068e-92   3.861241e-70  
0.04558833     7.226014e-92   5.982261e-70  
0.04658562     1.319143e-91   9.188388e-70  
0.04758711     2.384208e-91   1.400244e-69  
0.04859176     4.26515e-91    2.11689e-69   
0.04959961     7.553164e-91   3.17582e-69   
0.05061175     1.325684e-90   4.731338e-69  
0.05162714     2.305418e-90   6.998537e-69  
0.0526458      3.973486e-90   1.028082e-68  
0.05366776     6.786219e-90   1.500224e-68  
0.05469304     1.148583e-89   2.175145e-68  
0.05572166     1.92748e-89    3.134182e-68  
0.05675366     3.209069e-89   4.489087e-68  
0.05778792     5.298279e-89   6.390389e-68  
0.0588256      8.682316e-89   9.046618e-68  
0.05986672     1.412437e-88   1.273948e-67  
0.06091015     2.2804e-88     1.784176e-67  
0.06195708     3.657331e-88   2.486665e-67  
0.06300634     5.828664e-88   3.448323e-67  
0.06405914     9.239815e-88   4.760344e-67  
0.06511551     1.457325e-87   6.542995e-67  
0.06617427     2.286078e-87   8.952191e-67  
0.06723664     3.568813e-87   1.219842e-66  
0.06830144     5.540215e-87   1.655059e-66  
0.06936868     8.551653e-87   3.22421e-66   
0.0704396      1.312883e-86   4.390342e-66  
0.071513       2.003957e-86   5.954346e-66  
0.07258888     3.041772e-86   8.04463e-66   
0.07366726     4.592144e-86   1.082943e-65  
0.07474943     6.900142e-86   1.453361e-65  
0.07583413     1.03155e-85    1.944278e-65  
0.07692139     1.534552e-85   2.59336e-65   
0.07801121     2.271922e-85   3.449798e-65  
0.07910361     3.348103e-85   4.577842e-65  
0.08019861     4.911774e-85   6.061345e-65  
0.08129623     7.17421e-85    8.009722e-65  
0.08239647     1.043568e-84   1.056563e-64  
0.08349804     1.511139e-84   1.391041e-64  
0.08460225     2.179228e-84   1.828819e-64  
0.08570914     3.130454e-84   2.401316e-64  
0.08681738     4.47813e-84    3.148311e-64  
0.0879283      6.382869e-84   4.123215e-64  
0.08904194     9.065602e-84   5.394419e-64  
0.09015695     1.282584e-83   7.047927e-64  
0.09127469     1.80854e-83    9.198557e-64  
0.09239381     2.540816e-83   1.198835e-63  
0.0935157      3.558313e-83   1.56063e-63   
0.09464037     4.967967e-83   2.029139e-63  
0.09576644     6.912228e-83   2.634027e-63  
0.09689532     9.59095e-83    3.414558e-63  
0.09802561     1.326918e-82   4.418555e-63  
0.09915875     1.831472e-82   5.709129e-63  
0.1002933      2.521279e-82   7.362716e-63  
0.1014307      3.463521e-82   9.479844e-63  
0.1025696      4.746185e-82   1.218135e-62  
0.1037114      6.490965e-82   1.562565e-62  
0.1048546      8.856334e-82   2.000195e-62  
0.1060008      1.206063e-81   2.555756e-62  
0.1071484      1.638754e-81   3.258575e-62  
0.1082975      2.221906e-81   4.1456e-62    
0.1094495      3.007546e-81   5.264142e-62  
0.1106031      4.062973e-81   6.669809e-62  
0.1117597      5.480316e-81   8.434979e-62  
0.1129177      7.377705e-81   1.064418e-61  
0.1140773      9.912697e-81   1.340308e-61  
0.11524        1.32976e-80    1.684625e-61  
0.1164041      1.780448e-80   2.112936e-61  
0.1175698      2.379266e-80   2.64464e-61   
0.1187386      3.17448e-80    3.30437e-61   
0.1199089      4.227367e-80   4.120362e-61  
0.1210808      5.619022e-80   5.127651e-61  
0.1222543      7.454867e-80   6.368722e-61  
0.1234309      9.876266e-80   7.897279e-61  
0.1246091      1.30603e-79    9.774199e-61  
0.1257888      1.723944e-79   1.207459e-60  
0.1269702      2.271555e-79   1.488892e-60  
0.1281532      2.987818e-79   1.832601e-60  
0.1293377      3.923105e-79   2.251664e-60  
0.1305255      5.144412e-79   2.762512e-60  
0.131715       6.734813e-79   3.383462e-60  
0.132906       8.802935e-79   4.13702e-60   
0.1340987      1.148813e-78   5.050072e-60  
0.1352931      1.496924e-78   6.15461e-60   
0.1364891      1.947602e-78   7.488676e-60  
0.1376867      2.530309e-78   9.097634e-60  
0.1388861      3.282707e-78   1.103535e-59  
0.1400871      4.252576e-78   1.336585e-59  
0.1412897      5.500783e-78   1.616521e-59  
0.1424941      7.10427e-78    1.952365e-59  
0.1437002      9.160395e-78   2.354822e-59  
0.1449079      1.179268e-77   2.836578e-59  
0.1461174      1.515582e-77   3.412682e-59  
0.1473286      1.944511e-77   4.100966e-59  
0.1485415      2.490586e-77   4.922602e-59  
0.1497561      3.184624e-77   5.902696e-59  
0.1509725      4.065069e-77   7.071045e-59  
0.1521906      5.179969e-77   8.463027e-59  
0.1534105      6.589198e-77   1.012061e-58  
0.1546321      8.367402e-77   1.20936e-58   
0.1558555      1.060796e-76   1.4441e-58    
0.1570807      1.342655e-76   1.72329e-58   
0.1583076      1.696675e-76   2.05524e-58   
0.1595364      2.140601e-76   2.449802e-58  
0.1607669      2.696468e-76   2.918661e-58  
0.1619975      3.390356e-76   3.474742e-58  
0.1632298      4.256315e-76   4.134983e-58  
0.164464       5.335442e-76   4.918721e-58  
0.1657         6.678347e-76   5.848791e-58  
0.1669378      8.347311e-76   6.952173e-58  
0.1681775      1.04189e-75    8.260681e-58  
0.1694172      1.298255e-75   9.809329e-58  
0.1706587      1.615471e-75   1.164399e-57  
0.1719021      2.007425e-75   1.381651e-57  
0.1731474      2.4911e-75     1.638781e-57  
0.1743945      3.087284e-75   1.942948e-57  
0.1756416      3.820092e-75   2.301953e-57  
0.1768907      4.720844e-75   2.72601e-57   
0.1781416      5.826723e-75   3.226579e-57  
0.1793944      7.182407e-75   3.817075e-57  
0.1806492      8.842275e-75   4.513134e-57  
0.1819039      1.08688e-74    5.331633e-57  
0.1831606      1.334394e-74   6.294677e-57  
0.1844192      1.636422e-74   7.426879e-57  
0.1856798      2.004607e-74   8.7568e-57    
0.1869403      2.452133e-74   1.031492e-56  
0.1882028      2.996189e-74   1.214141e-56  
0.1894673      3.656847e-74   1.42807e-56   
0.1907338      4.458303e-74   1.678442e-56  
0.1920022      5.429633e-74   1.971209e-56  
0.1932707      6.60356e-74    2.312656e-56  
0.1945411      8.023156e-74   2.711075e-56  
0.1958135      9.738244e-74   3.175537e-56  
0.197088       1.180849e-73   3.716485e-56  
0.1983645      1.430546e-73   4.345913e-56  
0.199641       1.730875e-73   5.076326e-56  
0.2009195      2.092385e-73   5.92436e-56   
0.2022001      2.527208e-73   6.908e-56     
0.2034827      3.049835e-73   8.047804e-56  
0.2047674      3.677607e-73   9.367245e-56  
0.2060521      4.429935e-73   1.089046e-55  
0.2073389      5.332318e-73   1.264989e-55  
0.2086278      6.414078e-73   1.468022e-55  
0.2099188      7.710149e-73   1.579402e-55  
0.2112119      9.262236e-73   1.839149e-55  
0.212505       1.111671e-72   2.1392e-55    
0.2138002      1.333502e-72   2.486033e-55  
0.2150976      1.598721e-72   2.886612e-55  
0.2163971      1.915547e-72   3.348898e-55  
0.2176987      2.293762e-72   3.881975e-55  
0.2190026      2.744877e-72   4.496226e-55  
0.2203064      3.281626e-72   5.202234e-55  
0.2216124      3.920678e-72   6.014408e-55  
0.2229206      4.68114e-72    6.948079e-55  
0.2242311      5.585772e-72   8.020673e-55  
0.2255415      6.659093e-72   9.249862e-55  
0.2268541      7.933835e-72   1.065987e-54  
0.228169       9.446648e-72   1.227634e-54  
0.2294861      1.124118e-71   1.412846e-54  
0.2308055      1.336877e-71   1.624935e-54  
0.2321271      1.58896e-71    1.86767e-54   
0.2334488      1.886881e-71   2.144816e-54  
0.2347727      2.239334e-71   2.461598e-54  
0.2360989      2.656079e-71   2.823503e-54  
0.2374274      3.14859e-71    3.236761e-54  
0.2387583      3.730425e-71   3.70842e-54   
0.2400914      4.417427e-71   4.246481e-54  
0.2414246      5.22678e-71    4.858843e-54  
0.2427601      6.181071e-71   5.556587e-54  
0.244098       7.30554e-71    6.351264e-54  
0.2454383      8.629589e-71   7.255977e-54  
0.2467809      1.018757e-70   8.285516e-54  
0.2481235      1.201582e-70   9.454335e-54  
0.2494686      1.416348e-70   1.078284e-53  
0.250816       1.668532e-70   1.229208e-53  
0.2521659      1.964508e-70   1.400581e-53  
0.2535158      2.310974e-70   1.594702e-53  
0.2548681      2.716955e-70   1.814854e-53  
0.2562229      3.19217e-70    2.064404e-53  
0.2575802      3.747883e-70   2.347132e-53  
0.2589399      4.397016e-70   2.667289e-53  
0.2602997      5.153048e-70   3.028931e-53  
0.2616619      6.03451e-70    3.437915e-53  
0.2630267      7.061631e-70   3.900177e-53  
0.264394       8.257921e-70   4.42235e-53   
0.2657638      9.650951e-70   5.011849e-53  
0.2671337      1.126907e-69   5.675646e-53  
0.2685061      1.315114e-69   6.423998e-53  
0.269881       1.533911e-69   7.267204e-53  
0.2712586      1.788113e-69   8.21678e-53   
0.2726388      2.083322e-69   9.285557e-53  
0.274019       2.425249e-69   1.048541e-52  
0.2754018      2.821593e-69   1.183407e-52  
0.2767873      3.280578e-69   1.334912e-52  
0.2781754      3.811957e-69   1.505008e-52  
0.2795636      4.425727e-69   1.695476e-52  
0.2809544      5.135633e-69   1.909027e-52  
0.2823479      5.956268e-69   2.148328e-52  
0.2837441      6.904232e-69   2.416342e-52  
0.2851403      7.996213e-69   2.715743e-52  
0.2865392      9.255218e-69   3.050658e-52  
0.2879409      1.07057e-68    3.425116e-52  
0.2893454      1.237573e-68   3.843575e-52  
0.2907498      1.429306e-68   4.309996e-52  
0.2921571      1.649708e-68   4.830591e-52  
0.2935671      1.90297e-68    5.411372e-52  
0.2949772      2.193223e-68   6.057624e-52  
0.29639        2.526304e-68   6.777762e-52  
0.2978057      2.908259e-68   7.579888e-52  
0.2992243      3.345942e-68   8.472968e-52  
0.3006429      3.846019e-68   9.464757e-52  
0.3020643      4.41812e-68    1.056781e-51  
0.3034887      5.072221e-68   1.179408e-51  
0.304916       5.81973e-68    1.315669e-51  
0.3063462      6.674209e-68   1.467014e-51  
0.3077764      7.648612e-68   1.634672e-51  
0.3092096      8.761489e-68   1.820685e-51  
0.3106457      1.003224e-67   2.026975e-51  
0.3120849      1.148274e-67   2.255658e-51  
0.313524       1.313385e-67   2.508496e-51  
0.3149662      1.501529e-67   2.788482e-51  
0.3164114      1.715822e-67   3.0984e-51    
0.3178567      1.959216e-67   3.440547e-51  
0.3193049      2.236073e-67   3.818889e-51  
0.3207563      2.550852e-67   4.237072e-51  
0.3222108      2.908575e-67   4.699106e-51  
0.3236653      3.314031e-67   5.208232e-51  
0.3251229      3.7743e-67     5.770172e-51  
0.3265837      4.296403e-67   6.390151e-51  
0.3280445      4.886954e-67   7.072314e-51  
0.3295084      5.555888e-67   7.824136e-51  
0.3309756      6.313259e-67   8.652399e-51  
0.332446       7.170584e-67   9.564551e-51  
0.3339163      8.13853e-67    1.056641e-50  
0.33539        9.233365e-67   1.16687e-50   
0.3368669      1.047083e-66   1.288102e-50  
0.3383438      1.186527e-66   1.42107e-50   
0.339824       1.343889e-66   1.567163e-50  
0.3413075      1.521352e-66   1.727612e-50  
0.3427911      1.72087e-66    1.90334e-50   
0.344278       1.945561e-66   2.09614e-50   
0.3457683      2.198528e-66   2.307587e-50  
0.3472585      2.482707e-66   2.538837e-50  
0.3487522      2.80253e-66    2.792205e-50  
0.3502494      3.162298e-66   3.069709e-50  
0.3517465      3.565839e-66   3.372809e-50  
0.3532471      4.019388e-66   3.70449e-50   
0.3547511      4.528841e-66   4.067348e-50  
0.3562552      5.099143e-66   4.529838e-50  
0.3577628      5.738348e-66   4.997737e-50  
0.359274       6.454303e-66   5.512149e-50  
0.3607851      7.253884e-66   6.076116e-50  
0.3622998      8.148828e-66   6.695606e-50  
0.3638146      9.148139e-66   7.374183e-50  
0.3653329      1.026623e-65   8.118958e-50  
0.3668549      1.151718e-65   8.936171e-50  
0.3683769      1.291218e-65   9.830377e-50  
0.3699025      1.447041e-65   1.081081e-49  
0.3714319      1.621011e-65   1.188551e-49  
0.3729613      1.814679e-65   1.306021e-49  
0.3744944      2.030782e-65   1.434685e-49  
0.3760312      2.271909e-65   1.575572e-49  
0.3775681      2.540204e-65   1.729407e-49  
0.3791088      2.839338e-65   1.897734e-49  
0.3806494      3.171895e-65   2.081402e-49  
0.382194       3.542339e-65   2.282245e-49  
0.3837423      3.954662e-65   2.501823e-49  
0.3852907      4.412133e-65   2.741201e-49  
0.386843       4.920726e-65   3.002746e-49  
0.3883953      5.48441e-65    3.287706e-49  
0.3899516      6.110431e-65   3.598867e-49  
0.3915118      6.805662e-65   3.938562e-49  
0.393072       7.575313e-65   4.308337e-49  
0.3946363      8.42906e-65    4.711757e-49  
0.3962005      9.373182e-65   5.150613e-49  
0.3977688      1.041938e-64   5.629127e-49  
0.3993371      1.157504e-64   6.14938e-49   
0.4009095      1.285433e-64   6.716321e-49  
0.402482       1.426602e-64   7.33232e-49   
0.4040585      1.582731e-64   8.003148e-49  
0.4056351      1.754887e-64   8.731502e-49  
0.4072159      1.945159e-64   9.524132e-49  
0.4088008      2.155428e-64   1.038649e-48  
0.4103858      2.387163e-64   1.132184e-48  
0.4119751      2.6433e-64     1.233874e-48  
0.4135643      2.925639e-64   1.344093e-48  
0.4151579      3.237564e-64   1.463843e-48  
0.4167515      3.581042e-64   1.59355e-48   
0.4183494      3.960244e-64   1.734377e-48  
0.4199474      4.377802e-64   1.886803e-48  
0.4215497      4.838743e-64   2.052181e-48  
0.4231521      5.346157e-64   2.231051e-48  
0.4247589      5.906412e-64   2.424978e-48  
0.4263657      6.52342e-64    2.634567e-48  
0.427977       7.204815e-64   2.861638e-48  
0.4295929      7.95735e-64    3.107593e-48  
0.4312088      8.785433e-64   3.373164e-48  
0.4328293      9.698799e-64   3.66064e-48   
0.4344498      1.070304e-63   2.082886e-49  
0.4360749      1.181005e-63   2.269309e-49  
0.4377001      1.302631e-63   2.47133e-49   
0.4393299      1.436612e-63   2.690809e-49  
0.4409598      1.583773e-63   2.928473e-49  
0.4425944      1.745874e-63   3.186488e-49  
0.4442338      1.924446e-63   3.466536e-49  
0.4458733      2.120604e-63   3.769505e-49  
0.4475176      2.33677e-63    4.098131e-49  
0.4491619      2.574336e-63   4.453409e-49  
0.4508111      2.836248e-63   4.838523e-49  
0.4524603      3.124322e-63   5.254594e-49  
0.4541145      3.442111e-63   5.705322e-49  
0.4557687      3.791591e-63   6.191964e-49  
0.4574279      4.176801e-63   6.718819e-49  
0.4590872      4.599817e-63   7.287277e-49  
0.4607515      5.06568e-63    7.902283e-49  
0.4624159      5.577389e-63   8.565403e-49  
0.4640854      6.140945e-63   9.282433e-49  
0.4657601      6.76146e-63    1.005764e-48  
0.4674348      7.44217e-63    1.089287e-48  
0.4691149      8.191073e-63   1.179531e-48  
0.4707949      9.012686e-63   1.276697e-48  
0.4724802      9.917196e-63   1.381612e-48  
0.4741656      1.09099e-62    1.494494e-48  
0.4758564      1.200238e-62   1.616296e-48  
0.4775472      1.320031e-62   1.747255e-48  
0.4792435      1.451792e-62   1.888476e-48  
0.4809397      1.59617e-62    2.040226e-48  
0.4826416      1.754825e-62   2.203779e-48  
0.4843434      1.928539e-62   2.379425e-48  
0.4860452      2.118691e-62   2.567977e-48  
0.4877527      2.327568e-62   2.771003e-48  
0.4894602      2.556325e-62   2.988827e-48  
0.4911734      2.807673e-62   3.223251e-48  
0.4928867      3.082672e-62   3.474629e-48  
0.4946057      3.384484e-62   3.74504e-48   
0.4963247      3.714561e-62   4.034866e-48  
0.4980496      4.076726e-62   4.346489e-48  
0.4997746      4.472767e-62   4.680313e-48  
0.5015054      4.907417e-62   5.039051e-48  
0.5032363      5.38309e-62    5.423115e-48  
0.5049672      5.903416e-62   5.834142e-48  
0.5067042      6.474652e-62   6.275457e-48  
0.5084411      7.099602e-62   6.747513e-48  
0.5101842      7.785752e-62   7.254113e-48  
0.5119274      8.53627e-62    1.948042e-48  
0.5136705      9.357266e-62   2.105058e-48  
0.5154199      1.025871e-61   2.274467e-48  
0.5171692      1.124506e-61   2.456546e-48  
0.518925       1.232853e-61   2.65291e-48   
0.5206807      1.351463e-61   2.863868e-48  
0.5224365      1.481249e-61   3.09042e-48   
0.5241987      1.623754e-61   3.334562e-48  
0.5259609      1.779609e-61   3.596633e-48  
0.5277232      1.950008e-61   3.877853e-48  
0.529492       2.136997e-61   4.180696e-48  
0.5312608      2.341432e-61   4.50555e-48   
0.5330363      2.565792e-61   4.855273e-48  
0.5348119      2.811025e-61   5.230278e-48  
0.5365874      3.078924e-61   5.632261e-48  
0.5383698      3.372679e-61   6.064736e-48  
0.5401521      3.693526e-61   6.528133e-48  
0.5419345      4.043921e-61   7.024482e-48  
0.5437238      4.42822e-61    7.558081e-48  
0.5455131      4.848224e-61   8.129367e-48  
0.5473095      5.309194e-61   8.743302e-48  
0.5491059      5.813397e-61   9.40034e-48   
0.5509023      6.365141e-61   1.010327e-47  
0.5527059      6.971412e-61   1.08582e-47   
0.5545095      7.635102e-61   1.166557e-47  
0.5563131      8.361814e-61   1.252877e-47  
0.5581241      9.160874e-61   1.345526e-47  
0.559935       1.003596e-60   1.444549e-47  
0.561746       1.099432e-60   1.550353e-47  
0.5635645      1.204842e-60   1.663856e-47  
0.565383       1.320265e-60   1.785101e-47  
0.5672014      1.446583e-60   1.914583e-47  
0.5690276      1.585375e-60   2.053425e-47  
0.5708537      1.737217e-60   2.201658e-47  
0.5726799      1.903296e-60   2.35987e-47   
0.5745061      2.08493e-60    2.528683e-47  
0.5763401      2.284483e-60   2.709559e-47  
0.5781741      2.502871e-60   2.902499e-47  
0.5800081      2.741873e-60   3.108253e-47  
0.5818502      3.004607e-60   3.328615e-47  
0.5836923      3.292183e-60   3.563566e-47  
0.5855343      3.606991e-60   3.814012e-47  
0.5873846      3.953234e-60   4.082137e-47  
0.5892349      4.332436e-60   4.367879e-47  
0.5910852      4.747716e-60   4.672314e-47  
0.5929355      5.202404e-60   4.996589e-47  
0.5947943      5.702555e-60   5.343549e-47  
0.596653       6.250244e-60   5.713068e-47  
0.5985117      6.849881e-60   6.106527e-47  
0.6003705      7.506342e-60   6.525379e-47  
0.6022379      8.228422e-60   6.973307e-47  
0.6041053      9.019279e-60   7.450046e-47  
0.6059728      9.885431e-60   7.957317e-47  
0.6078402      1.083384e-59   8.496937e-47  
0.6097166      1.187735e-59   9.073664e-47  
0.6115929      1.30203e-59    9.687053e-47  
0.6134693      1.427182e-59   1.033929e-46  
0.6153456      1.564223e-59   1.103269e-46  
0.6172312      1.715054e-59   1.177343e-46  
0.6191168      1.880184e-59   1.256088e-46  
0.6210023      2.060867e-59   1.339781e-46  
0.6228879      2.258454e-59   1.428716e-46  
0.6247829      2.475538e-59   1.523693e-46  
0.626678       2.712809e-59   1.62461e-46   
0.628573       2.972078e-59   1.731819e-46  
0.630468       3.255317e-59   1.845693e-46  
0.6323728      3.56638e-59    1.967267e-46  
0.6342776      3.906357e-59   2.096386e-46  
0.6361824      4.277908e-59   2.233487e-46  
0.6380872      4.683891e-59   2.379032e-46  
0.6399921      5.127384e-59   2.533508e-46  
0.641907       5.614408e-59   2.698324e-46  
0.6438219      6.146406e-59   2.873232e-46  
0.6457369      6.727494e-59   3.05881e-46   
0.6476518      7.36214e-59    3.255669e-46  
0.6495772      8.059104e-59   3.465629e-46  
0.6515026      8.820444e-59   3.688339e-46  
0.653428       9.651693e-59   3.924528e-46  
0.6553534      1.055901e-58   4.174962e-46  
0.6572788      1.154889e-58   4.440451e-46  
0.6592151      1.263509e-58   4.723489e-46  
0.6611513      1.382017e-58   5.023554e-46  
0.6630876      1.511263e-58   5.341629e-46  
0.6650239      1.652139e-58   5.678753e-46  
0.6669714      1.806533e-58   6.038155e-46  
0.668919       1.974688e-58   6.419087e-46  
0.6708665      2.157732e-58   6.822757e-46  
0.672814       2.356903e-58   7.250435e-46  
0.6747616      2.573579e-58   7.703445e-46  
0.6767209      2.810722e-58   8.186162e-46  
0.6786801      3.068726e-58   8.697426e-46  
0.6806394      3.349416e-58   9.2388e-46    
0.6825987      3.654823e-58   9.811936e-46  
0.6845579      3.987077e-58   3.006704e-46  
0.6865294      4.350867e-58   3.204484e-46  
0.6885009      4.746764e-58   3.414546e-46  
0.6904725      5.177422e-58   3.637612e-46  
0.692444       5.645714e-58   3.874446e-46  
0.6944155      6.15484e-58    4.125856e-46  
0.696387       6.708178e-58   4.392693e-46  
0.6983714      7.313356e-58   4.677764e-46  
0.7003558      7.970701e-58   4.980342e-46  
0.7023402      8.684368e-58   5.301442e-46  
0.7043246      9.458838e-58   5.642136e-46  
0.706309       1.029889e-57   6.003561e-46  
0.7082934      1.120981e-57   6.386904e-46  
0.7102914      1.220438e-57   6.796281e-46  
0.7122894      1.328304e-57   7.230475e-46  
0.7142874      1.445274e-57   7.690893e-46  
0.7162854      1.572111e-57   8.179021e-46  
0.7182833      1.709634e-57   8.696429e-46  
0.7202813      1.858716e-57   9.244773e-46  
0.7222937      2.021485e-57   9.8301e-46    
0.7243061      2.197916e-57   1.045045e-45  
0.7263184      2.389101e-57   1.11078e-45   
0.7283308      2.596222e-57   1.180423e-45  
0.7303432      2.820508e-57   1.254193e-45  
0.7323555      3.063273e-57   1.33232e-45   
0.7343679      3.325962e-57   1.415047e-45  
0.7363956      3.612394e-57   1.503316e-45  
0.7384233      3.922384e-57   1.596785e-45  
0.7404511      4.257804e-57   1.695739e-45  
0.7424788      4.620674e-57   1.800478e-45  
0.7445065      5.013196e-57   1.911316e-45  
0.7465342      5.437725e-57   2.028586e-45  
0.748562       5.896717e-57   2.152639e-45  
0.7506062      6.396948e-57   2.284944e-45  
0.7526504      6.937725e-57   2.424916e-45  
0.7546946      7.522261e-57   2.57297e-45   
0.7567388      8.153921e-57   2.919762e-46  
0.758783       8.836249e-57   3.104912e-46  
0.7608272      9.573074e-57   3.301166e-46  
0.7628714      1.036847e-56   3.509154e-46  
0.7649157      1.122676e-56   3.729536e-46  
0.7669778      1.216103e-56   3.965119e-46  
0.7690399      1.316905e-56   4.214776e-46  
0.7711021      1.425634e-56   4.479296e-46  
0.7731642      1.542886e-56   4.759506e-46  
0.7752264      1.669283e-56   5.056282e-46  
0.7772885      1.805515e-56   5.370525e-46  
0.7793507      1.95234e-56    5.703182e-46  
0.7814128      2.110597e-56   6.055255e-46  
0.783475       2.281163e-56   6.427802e-46  
0.7855371      2.464975e-56   6.821931e-46  
0.7875992      2.663015e-56   7.238813e-46  
0.7896614      2.876323e-56   7.679685e-46  
0.7917235      3.105956e-56   8.145856e-46  
0.7938063      3.355689e-56   8.643771e-46  
0.7958891      3.624607e-56   9.170381e-46  
0.7979718      3.914052e-56   9.727236e-46  
0.8000546      4.225443e-56   1.031596e-45  
0.8021373      4.560288e-56   1.093828e-45  
0.8042201      4.920173e-56   1.159599e-45  
0.8063029      5.306873e-56   1.229099e-45  
0.8083856      5.722247e-56   1.302524e-45  
0.8104684      6.168287e-56   1.380081e-45  
0.8125743      6.652717e-56   1.462921e-45  
0.8146802      7.173223e-56   1.550442e-45  
0.8167861      7.732567e-56   1.642885e-45  
0.818892       8.333625e-56   1.740502e-45  
0.8209979      8.979497e-56   1.843558e-45  
0.8231038      9.673429e-56   1.952331e-45  
0.8252098      1.041883e-55   2.067118e-45  
0.8273157      1.121933e-55   2.188231e-45  
0.8294216      1.207859e-55   2.315995e-45  
0.8315275      1.300054e-55   2.450754e-45  
0.8336334      1.398932e-55   2.592864e-45  
0.8357393      1.504949e-55   2.742697e-45  
0.8378452      1.618593e-55   2.900642e-45  
0.8399511      1.740369e-55   3.067106e-45  
0.8420851      1.872623e-55   3.244921e-45  
0.8442191      2.014411e-55   3.432388e-45  
0.8463531      2.166385e-55   3.629991e-45  
0.848487       2.329266e-55   3.838236e-45  
0.850621       2.503829e-55   4.057654e-45  
0.852755       2.690871e-55   4.288797e-45  
0.854889       2.891251e-55   4.532244e-45  
0.857023       3.105887e-55   4.788603e-45  
0.859157       3.335757e-55   5.058508e-45  
0.861291       3.581876e-55   5.342616e-45  
0.8634249      3.845289e-55   5.641617e-45  
0.8655589      4.127102e-55   5.95623e-45   
0.8676929      4.428514e-55   6.287204e-45  
0.8698269      4.750785e-55   6.635323e-45  
0.8719609      5.095257e-55   7.001407e-45  
0.8740949      5.463381e-55   7.386303e-45  
0.8762656      5.863754e-55   7.798056e-45  
0.8784364      6.29198e-55    8.231171e-45  
0.8806072      6.749927e-55   8.686662e-45  
0.882778       7.239556e-55   9.16559e-45   
0.8849488      7.762966e-55   9.669073e-45  
0.8871195      8.322338e-55   1.019827e-44  
0.8892903      8.919957e-55   2.548722e-45  
0.8914611      9.558232e-55   2.695872e-45  
0.8936319      1.023985e-54   2.850994e-45  
0.8958026      1.096774e-54   3.014485e-45  
0.8979734      1.174494e-54   3.186766e-45  
0.9001442      1.257453e-54   3.368278e-45  
0.902315       1.345975e-54   3.559484e-45  
0.9044858      1.440403e-54   3.760866e-45  
0.9066565      1.541109e-54   3.972926e-45  
0.9088273      1.648484e-54   4.196185e-45  
0.9109981      1.762941e-54   4.431189e-45  
0.9131689      1.884905e-54   4.678515e-45  
0.9153397      2.014837e-54   4.938756e-45  
0.9175104      2.153227e-54   5.212522e-45  
0.9196812      2.300577e-54   5.500462e-45  
0.921852       2.457454e-54   5.803253e-45  
0.9240228      2.624466e-54   6.121594e-45  
0.9261935      2.802264e-54   6.456217e-45  
0.9283643      2.991503e-54   6.80789e-45   
0.9305351      3.192848e-54   7.177435e-45  
0.9327059      3.40704e-54    7.565695e-45  
0.9348767      3.634853e-54   7.973542e-45  
0.9370474      3.877069e-54   8.401892e-45  
0.9392182      4.134488e-54   8.851698e-45  
0.941389       4.407956e-54   9.323954e-45  
0.9435598      4.698416e-54   9.819685e-45  
0.9457305      5.00691e-54    1.033995e-44  
0.9479013      5.334551e-54   1.088585e-44  
0.9500721      5.682467e-54   1.145856e-44  
0.9522429      6.051846e-54   1.205927e-44  
0.9544137      6.443958e-54   1.268925e-44  
0.9565844      6.860098e-54   1.334981e-44  
0.9587552      7.301727e-54   1.404227e-44  
0.960926       7.770376e-54   1.476803e-44  
0.9630968      8.267651e-54   1.552852e-44  
0.9652675      8.79515e-54    1.632527e-44  
0.9674383      9.354517e-54   1.715986e-44  
0.9696091      9.947455e-54   1.803394e-44  
0.9717799      1.057576e-53   1.894921e-44  
0.9739507      1.12414e-53    1.990743e-44  
0.9761214      1.194657e-53   2.091043e-44  
0.9782922      1.269356e-53   2.196009e-44  
0.980463       1.348478e-53   2.305838e-44  
0.9826338      1.432276e-53   2.420732e-44  
0.9848046      1.521005e-53   2.540906e-44  
0.9869753      1.614935e-53   2.66658e-44   
0.9891461      1.714354e-53   2.79798e-44   