# Probe 0 (0 0 0)
# Probe 1 (0 0.011 0)
# Time         0              1             
0              0              0             
1.199999e-06   8.754396e-05   8.754396e-05  
2.639996e-06   8.754368e-05   8.754368e-05  
4.367991e-06   8.754333e-05   8.754333e-05  
6.441582e-06   8.754288e-05   8.754288e-05  
8.92989e-06    8.754235e-05   8.754235e-05  
1.191586e-05   8.75417e-05    8.75417e-05   
1.549901e-05   8.754093e-05   8.754093e-05  
1.97988e-05    8.754e-05      8.754e-05     
2.495853e-05   8.753888e-05   8.753888e-05  
3.115017e-05   8.753754e-05   8.753754e-05  
3.858013e-05   8.753594e-05   8.753594e-05  
4.749602e-05   8.753401e-05   8.753401e-05  
5.819505e-05   8.753169e-05   8.753169e-05  
7.103374e-05   8.752892e-05   8.752892e-05  
8.644002e-05   8.752559e-05   8.752559e-05  
0.0001049275   8.752159e-05   8.752159e-05  
0.0001271124   8.751679e-05   8.751679e-05  
0.0001537338   8.751104e-05   8.751104e-05  
0.0001856788   8.750413e-05   8.750413e-05  
0.0002240123   8.749584e-05   8.749584e-05  
0.0002700107   8.74859e-05    8.74859e-05   
0.0003252078   8.747398e-05   8.747398e-05  
0.0003914421   8.745967e-05   8.745967e-05  
0.0004709212   8.744251e-05   8.744251e-05  
0.0005662961   8.742193e-05   8.742193e-05  
0.0006807395   8.739724e-05   8.739724e-05  
0.0008180652   8.736764e-05   8.736764e-05  
0.000982838    8.733214e-05   8.733214e-05  
0.001180546    8.728958e-05   8.728958e-05  
0.001417795    8.723857e-05   8.723857e-05  
0.001702454    8.717743e-05   8.717743e-05  
0.002043985    8.710418e-05   8.710418e-05  
0.002451314    8.701698e-05   8.701698e-05  
0.00292679     8.69154e-05    8.69154e-05   
0.003473132    8.679895e-05   8.679895e-05  
0.004092862    8.666722e-05   8.666722e-05  
0.004786874    8.652014e-05   8.652014e-05  
0.005540824    8.636091e-05   8.636091e-05  
0.006303446    8.62004e-05    8.62004e-05   
0.007074351    8.603873e-05   8.603873e-05  
0.007851896    8.587625e-05   8.587625e-05  
0.008635584    8.571307e-05   8.571307e-05  
0.009425515    8.554919e-05   8.554919e-05  
0.0102218      8.53846e-05    8.53846e-05   
0.01102389     8.521942e-05   8.521942e-05  
0.01183187     8.505364e-05   8.505364e-05  
0.01264585     8.488725e-05   8.488725e-05  
0.01346591     8.472025e-05   8.472025e-05  
0.01429216     8.455262e-05   8.455262e-05  
0.01512468     8.438437e-05   8.438437e-05  
0.01596358     8.421547e-05   8.421547e-05  
0.01680825     8.404606e-05   8.404606e-05  
0.01765876     8.387614e-05   8.387614e-05  
0.01851521     8.370571e-05   8.370571e-05  
0.01937767     8.353474e-05   8.353474e-05  
0.02024548     8.33634e-05    8.33634e-05   
0.02112026     8.319136e-05   8.319136e-05  
0.02200134     8.301878e-05   8.301878e-05  
0.02288801     8.284579e-05   8.284579e-05  
0.02378035     8.267241e-05   8.267241e-05  
0.02467761     8.249877e-05   8.249877e-05  
0.02557985     8.232488e-05   8.232488e-05  
0.02648713     8.215073e-05   8.215073e-05  
0.02739952     8.197632e-05   8.197632e-05  
0.02831706     8.180165e-05   8.180165e-05  
0.02923896     8.162688e-05   8.162688e-05  
0.03016615     8.145183e-05   8.145183e-05  
0.03109778     8.127668e-05   8.127668e-05  
0.03203392     8.110142e-05   8.110142e-05  
0.03297461     8.092605e-05   8.092605e-05  
0.03391989     8.075056e-05   8.075056e-05  
0.03486982     8.057496e-05   8.057496e-05  
0.03582351     8.039942e-05   8.039942e-05  
0.03678194     8.022375e-05   8.022375e-05  
0.03774419     8.004814e-05   8.004814e-05  
0.03871031     7.987258e-05   7.987258e-05  
0.03968131     7.969689e-05   7.969689e-05  
0.04065625     7.952124e-05   7.952124e-05  
0.04163518     7.934565e-05   7.934565e-05  
0.04261811     7.91701e-05    7.91701e-05   
0.04360409     7.899477e-05   7.899477e-05  
0.04459415     7.881949e-05   7.881949e-05  
0.04558833     7.864424e-05   7.864424e-05  
0.04658562     7.846922e-05   7.846922e-05  
0.04758711     7.829423e-05   7.829423e-05  
0.04859176     7.811947e-05   7.811947e-05  
0.04959961     7.794492e-05   7.794492e-05  
0.05061175     7.77704e-05    7.77704e-05   
0.05162714     7.75961e-05    7.75961e-05   
0.0526458      7.742202e-05   7.742202e-05  
0.05366776     7.724815e-05   7.724815e-05  
0.05469304     7.707449e-05   7.707449e-05  
0.05572166     7.690105e-05   7.690105e-05  
0.05675366     7.672781e-05   7.672781e-05  
0.05778792     7.655497e-05   7.655497e-05  
0.0588256      7.638235e-05   7.638235e-05  
0.05986672     7.620992e-05   7.620992e-05  
0.06091015     7.603789e-05   7.603789e-05  
0.06195708     7.586607e-05   7.586607e-05  
0.06300634     7.569464e-05   7.569464e-05  
0.06405914     7.552341e-05   7.552341e-05  
0.06511551     7.535237e-05   7.535237e-05  
0.06617427     7.518173e-05   7.518173e-05  
0.06723664     7.501128e-05   7.501128e-05  
0.06830144     7.484123e-05   7.484123e-05  
0.06936868     7.467155e-05   7.467155e-05  
0.0704396      7.450207e-05   7.450207e-05  
0.071513       7.433298e-05   7.433298e-05  
0.07258888     7.416427e-05   7.416427e-05  
0.07366726     7.399593e-05   7.399593e-05  
0.07474943     7.382779e-05   7.382779e-05  
0.07583413     7.366002e-05   7.366002e-05  
0.07692139     7.349263e-05   7.349263e-05  
0.07801121     7.332561e-05   7.332561e-05  
0.07910361     7.315897e-05   7.315897e-05  
0.08019861     7.29927e-05    7.29927e-05   
0.08129623     7.282681e-05   7.282681e-05  
0.08239647     7.266128e-05   7.266128e-05  
0.08349804     7.249632e-05   7.249632e-05  
0.08460225     7.233172e-05   7.233172e-05  
0.08570914     7.216749e-05   7.216749e-05  
0.08681738     7.200382e-05   7.200382e-05  
0.0879283      7.184051e-05   7.184051e-05  
0.08904194     7.167756e-05   7.167756e-05  
0.09015695     7.151516e-05   7.151516e-05  
0.09127469     7.135312e-05   7.135312e-05  
0.09239381     7.119163e-05   7.119163e-05  
0.0935157      7.103049e-05   7.103049e-05  
0.09464037     7.08697e-05    7.08697e-05   
0.09576644     7.070945e-05   7.070945e-05  
0.09689532     7.054955e-05   7.054955e-05  
0.09802561     7.03902e-05    7.03902e-05   
0.09915875     7.023118e-05   7.023118e-05  
0.1002933      7.00727e-05    7.00727e-05   
0.1014307      6.991456e-05   6.991456e-05  
0.1025696      6.975695e-05   6.975695e-05  
0.1037114      6.959968e-05   6.959968e-05  
0.1048546      6.944294e-05   6.944294e-05  
0.1060008      6.928652e-05   6.928652e-05  
0.1071484      6.913064e-05   6.913064e-05  
0.1082975      6.897528e-05   6.897528e-05  
0.1094495      6.882024e-05   6.882024e-05  
0.1106031      6.866572e-05   6.866572e-05  
0.1117597      6.851152e-05   6.851152e-05  
0.1129177      6.835784e-05   6.835784e-05  
0.1140773      6.820467e-05   6.820467e-05  
0.11524        6.805182e-05   6.805182e-05  
0.1164041      6.789947e-05   6.789947e-05  
0.1175698      6.774764e-05   6.774764e-05  
0.1187386      6.759611e-05   6.759611e-05  
0.1199089      6.744509e-05   6.744509e-05  
0.1210808      6.729456e-05   6.729456e-05  
0.1222543      6.714454e-05   6.714454e-05  
0.1234309      6.699482e-05   6.699482e-05  
0.1246091      6.684559e-05   6.684559e-05  
0.1257888      6.669686e-05   6.669686e-05  
0.1269702      6.654862e-05   6.654862e-05  
0.1281532      6.640086e-05   6.640086e-05  
0.1293377      6.625359e-05   6.625359e-05  
0.1305255      6.610661e-05   6.610661e-05  
0.131715       6.596011e-05   6.596011e-05  
0.132906       6.581409e-05   6.581409e-05  
0.1340987      6.566855e-05   6.566855e-05  
0.1352931      6.552349e-05   6.552349e-05  
0.1364891      6.53789e-05    6.53789e-05   
0.1376867      6.523478e-05   6.523478e-05  
0.1388861      6.509112e-05   6.509112e-05  
0.1400871      6.494794e-05   6.494794e-05  
0.1412897      6.480522e-05   6.480522e-05  
0.1424941      6.466296e-05   6.466296e-05  
0.1437002      6.452116e-05   6.452116e-05  
0.1449079      6.437982e-05   6.437982e-05  
0.1461174      6.423893e-05   6.423893e-05  
0.1473286      6.40985e-05    6.40985e-05   
0.1485415      6.395851e-05   6.395851e-05  
0.1497561      6.381898e-05   6.381898e-05  
0.1509725      6.367989e-05   6.367989e-05  
0.1521906      6.354124e-05   6.354124e-05  
0.1534105      6.340303e-05   6.340303e-05  
0.1546321      6.326527e-05   6.326527e-05  
0.1558555      6.312794e-05   6.312794e-05  
0.1570807      6.299104e-05   6.299104e-05  
0.1583076      6.285458e-05   6.285458e-05  
0.1595364      6.271854e-05   6.271854e-05  
0.1607669      6.258294e-05   6.258294e-05  
0.1619975      6.244795e-05   6.244795e-05  
0.1632298      6.231339e-05   6.231339e-05  
0.164464       6.217925e-05   6.217925e-05  
0.1657         6.204553e-05   6.204553e-05  
0.1669378      6.191223e-05   6.191223e-05  
0.1681775      6.177933e-05   6.177933e-05  
0.1694172      6.164705e-05   6.164705e-05  
0.1706587      6.151517e-05   6.151517e-05  
0.1719021      6.13837e-05    6.13837e-05   
0.1731474      6.125264e-05   6.125264e-05  
0.1743945      6.112198e-05   6.112198e-05  
0.1756416      6.099191e-05   6.099191e-05  
0.1768907      6.086224e-05   6.086224e-05  
0.1781416      6.073296e-05   6.073296e-05  
0.1793944      6.060408e-05   6.060408e-05  
0.1806492      6.047558e-05   6.047558e-05  
0.1819039      6.034767e-05   6.034767e-05  
0.1831606      6.022015e-05   6.022015e-05  
0.1844192      6.009301e-05   6.009301e-05  
0.1856798      5.996625e-05   5.996625e-05  
0.1869403      5.984007e-05   5.984007e-05  
0.1882028      5.971426e-05   5.971426e-05  
0.1894673      5.958882e-05   5.958882e-05  
0.1907338      5.946376e-05   5.946376e-05  
0.1920022      5.933906e-05   5.933906e-05  
0.1932707      5.921493e-05   5.921493e-05  
0.1945411      5.909117e-05   5.909117e-05  
0.1958135      5.896777e-05   5.896777e-05  
0.197088       5.884473e-05   5.884473e-05  
0.1983645      5.872205e-05   5.872205e-05  
0.199641       5.859992e-05   5.859992e-05  
0.2009195      5.847814e-05   5.847814e-05  
0.2022001      5.835672e-05   5.835672e-05  
0.2034827      5.823565e-05   5.823565e-05  
0.2047674      5.811492e-05   5.811492e-05  
0.2060521      5.799474e-05   5.799474e-05  
0.2073389      5.78749e-05    5.78749e-05   
0.2086278      5.775541e-05   5.775541e-05  
0.2099188      5.763625e-05   5.763625e-05  
0.2112119      5.751743e-05   5.751743e-05  
0.212505       5.739915e-05   5.739915e-05  
0.2138002      5.728119e-05   5.728119e-05  
0.2150976      5.716357e-05   5.716357e-05  
0.2163971      5.704628e-05   5.704628e-05  
0.2176987      5.692932e-05   5.692932e-05  
0.2190026      5.681268e-05   5.681268e-05  
0.2203064      5.669656e-05   5.669656e-05  
0.2216124      5.658077e-05   5.658077e-05  
0.2229206      5.646529e-05   5.646529e-05  
0.2242311      5.635013e-05   5.635013e-05  
0.2255415      5.623549e-05   5.623549e-05  
0.2268541      5.612115e-05   5.612115e-05  
0.228169       5.600713e-05   5.600713e-05  
0.2294861      5.589342e-05   5.589342e-05  
0.2308055      5.578002e-05   5.578002e-05  
0.2321271      5.566693e-05   5.566693e-05  
0.2334488      5.555433e-05   5.555433e-05  
0.2347727      5.544204e-05   5.544204e-05  
0.2360989      5.533005e-05   5.533005e-05  
0.2374274      5.521835e-05   5.521835e-05  
0.2387583      5.510696e-05   5.510696e-05  
0.2400914      5.499586e-05   5.499586e-05  
0.2414246      5.488525e-05   5.488525e-05  
0.2427601      5.477493e-05   5.477493e-05  
0.244098       5.46649e-05    5.46649e-05   
0.2454383      5.455516e-05   5.455516e-05  
0.2467809      5.444571e-05   5.444571e-05  
0.2481235      5.433673e-05   5.433673e-05  
0.2494686      5.422804e-05   5.422804e-05  
0.250816       5.411963e-05   5.411963e-05  
0.2521659      5.40115e-05    5.40115e-05   
0.2535158      5.390384e-05   5.390384e-05  
0.2548681      5.379645e-05   5.379645e-05  
0.2562229      5.368934e-05   5.368934e-05  
0.2575802      5.35825e-05    5.35825e-05   
0.2589399      5.347593e-05   5.347593e-05  
0.2602997      5.336983e-05   5.336983e-05  
0.2616619      5.326399e-05   5.326399e-05  
0.2630267      5.315841e-05   5.315841e-05  
0.264394       5.30531e-05    5.30531e-05   
0.2657638      5.294805e-05   5.294805e-05  
0.2671337      5.284345e-05   5.284345e-05  
0.2685061      5.273912e-05   5.273912e-05  
0.269881       5.263503e-05   5.263503e-05  
0.2712586      5.253121e-05   5.253121e-05  
0.2726388      5.242763e-05   5.242763e-05  
0.274019       5.232451e-05   5.232451e-05  
0.2754018      5.222163e-05   5.222163e-05  
0.2767873      5.2119e-05     5.2119e-05    
0.2781754      5.201662e-05   5.201662e-05  
0.2795636      5.191467e-05   5.191467e-05  
0.2809544      5.181297e-05   5.181297e-05  
0.2823479      5.171152e-05   5.171152e-05  
0.2837441      5.16103e-05    5.16103e-05   
0.2851403      5.150951e-05   5.150951e-05  
0.2865392      5.140896e-05   5.140896e-05  
0.2879409      5.130865e-05   5.130865e-05  
0.2893454      5.120856e-05   5.120856e-05  
0.2907498      5.110891e-05   5.110891e-05  
0.2921571      5.100948e-05   5.100948e-05  
0.2935671      5.091028e-05   5.091028e-05  
0.2949772      5.081151e-05   5.081151e-05  
0.29639        5.071296e-05   5.071296e-05  
0.2978057      5.061463e-05   5.061463e-05  
0.2992243      5.051652e-05   5.051652e-05  
0.3006429      5.041883e-05   5.041883e-05  
0.3020643      5.032135e-05   5.032135e-05  
0.3034887      5.02241e-05    5.02241e-05   
0.304916       5.012705e-05   5.012705e-05  
0.3063462      5.003022e-05   5.003022e-05  
0.3077764      4.99338e-05    4.99338e-05   
0.3092096      4.983759e-05   4.983759e-05  
0.3106457      4.974159e-05   4.974159e-05  
0.3120849      4.964579e-05   4.964579e-05  
0.313524       4.95504e-05    4.95504e-05   
0.3149662      4.945521e-05   4.945521e-05  
0.3164114      4.936023e-05   4.936023e-05  
0.3178567      4.926564e-05   4.926564e-05  
0.3193049      4.917125e-05   4.917125e-05  
0.3207563      4.907706e-05   4.907706e-05  
0.3222108      4.898307e-05   4.898307e-05  
0.3236653      4.888947e-05   4.888947e-05  
0.3251229      4.879606e-05   4.879606e-05  
0.3265837      4.870284e-05   4.870284e-05  
0.3280445      4.861001e-05   4.861001e-05  
0.3295084      4.851737e-05   4.851737e-05  
0.3309756      4.842492e-05   4.842492e-05  
0.332446       4.833265e-05   4.833265e-05  
0.3339163      4.824077e-05   4.824077e-05  
0.33539        4.814907e-05   4.814907e-05  
0.3368669      4.805755e-05   4.805755e-05  
0.3383438      4.796641e-05   4.796641e-05  
0.339824       4.787544e-05   4.787544e-05  
0.3413075      4.778466e-05   4.778466e-05  
0.3427911      4.769424e-05   4.769424e-05  
0.344278       4.760401e-05   4.760401e-05  
0.3457683      4.751394e-05   4.751394e-05  
0.3472585      4.742424e-05   4.742424e-05  
0.3487522      4.733472e-05   4.733472e-05  
0.3502494      4.724536e-05   4.724536e-05  
0.3517465      4.715637e-05   4.715637e-05  
0.3532471      4.706754e-05   4.706754e-05  
0.3547511      4.697887e-05   4.697887e-05  
0.3562552      4.689057e-05   4.689057e-05  
0.3577628      4.680243e-05   4.680243e-05  
0.359274       4.671444e-05   4.671444e-05  
0.3607851      4.662682e-05   4.662682e-05  
0.3622998      4.653935e-05   4.653935e-05  
0.3638146      4.645224e-05   4.645224e-05  
0.3653329      4.636528e-05   4.636528e-05  
0.3668549      4.627847e-05   4.627847e-05  
0.3683769      4.619202e-05   4.619202e-05  
0.3699025      4.610571e-05   4.610571e-05  
0.3714319      4.601954e-05   4.601954e-05  
0.3729613      4.593373e-05   4.593373e-05  
0.3744944      4.584806e-05   4.584806e-05  
0.3760312      4.576254e-05   4.576254e-05  
0.3775681      4.567736e-05   4.567736e-05  
0.3791088      4.559232e-05   4.559232e-05  
0.3806494      4.550762e-05   4.550762e-05  
0.382194       4.542306e-05   4.542306e-05  
0.3837423      4.533863e-05   4.533863e-05  
0.3852907      4.525455e-05   4.525455e-05  
0.386843       4.517059e-05   4.517059e-05  
0.3883953      4.508698e-05   4.508698e-05  
0.3899516      4.500349e-05   4.500349e-05  
0.3915118      4.492013e-05   4.492013e-05  
0.393072       4.483711e-05   4.483711e-05  
0.3946363      4.475421e-05   4.475421e-05  
0.3962005      4.467164e-05   4.467164e-05  
0.3977688      4.458919e-05   4.458919e-05  
0.3993371      4.450708e-05   4.450708e-05  
0.4009095      4.442508e-05   4.442508e-05  
0.402482       4.434341e-05   4.434341e-05  
0.4040585      4.426186e-05   4.426186e-05  
0.4056351      4.418063e-05   4.418063e-05  
0.4072159      4.409951e-05   4.409951e-05  
0.4088008      4.401851e-05   4.401851e-05  
0.4103858      4.393782e-05   4.393782e-05  
0.4119751      4.385725e-05   4.385725e-05  
0.4135643      4.377699e-05   4.377699e-05  
0.4151579      4.369684e-05   4.369684e-05  
0.4167515      4.361701e-05   4.361701e-05  
0.4183494      4.353728e-05   4.353728e-05  
0.4199474      4.345787e-05   4.345787e-05  
0.4215497      4.337855e-05   4.337855e-05  
0.4231521      4.329956e-05   4.329956e-05  
0.4247589      4.322065e-05   4.322065e-05  
0.4263657      4.314206e-05   4.314206e-05  
0.427977       4.306356e-05   4.306356e-05  
0.4295929      4.298515e-05   4.298515e-05  
0.4312088      4.290705e-05   4.290705e-05  
0.4328293      4.282904e-05   4.282904e-05  
0.4344498      4.275134e-05   4.275134e-05  
0.4360749      4.267372e-05   4.267372e-05  
0.4377001      4.259641e-05   4.259641e-05  
0.4393299      4.251918e-05   4.251918e-05  
0.4409598      4.244225e-05   4.244225e-05  
0.4425944      4.236541e-05   4.236541e-05  
0.4442338      4.228864e-05   4.228864e-05  
0.4458733      4.221217e-05   4.221217e-05  
0.4475176      4.213578e-05   4.213578e-05  
0.4491619      4.205969e-05   4.205969e-05  
0.4508111      4.198367e-05   4.198367e-05  
0.4524603      4.190795e-05   4.190795e-05  
0.4541145      4.18323e-05    4.18323e-05   
0.4557687      4.175694e-05   4.175694e-05  
0.4574279      4.168165e-05   4.168165e-05  
0.4590872      4.160665e-05   4.160665e-05  
0.4607515      4.153172e-05   4.153172e-05  
0.4624159      4.145708e-05   4.145708e-05  
0.4640854      4.13825e-05    4.13825e-05   
0.4657601      4.130798e-05   4.130798e-05  
0.4674348      4.123375e-05   4.123375e-05  
0.4691149      4.115958e-05   4.115958e-05  
0.4707949      4.10857e-05    4.10857e-05   
0.4724802      4.101187e-05   4.101187e-05  
0.4741656      4.093833e-05   4.093833e-05  
0.4758564      4.086483e-05   4.086483e-05  
0.4775472      4.079163e-05   4.079163e-05  
0.4792435      4.071847e-05   4.071847e-05  
0.4809397      4.064559e-05   4.064559e-05  
0.4826416      4.057277e-05   4.057277e-05  
0.4843434      4.050022e-05   4.050022e-05  
0.4860452      4.042795e-05   4.042795e-05  
0.4877527      4.035572e-05   4.035572e-05  
0.4894602      4.028378e-05   4.028378e-05  
0.4911734      4.021187e-05   4.021187e-05  
0.4928867      4.014023e-05   4.014023e-05  
0.4946057      4.006863e-05   4.006863e-05  
0.4963247      3.999731e-05   3.999731e-05  
0.4980496      3.992602e-05   3.992602e-05  
0.4997746      3.9855e-05     3.9855e-05    
0.5015054      3.978401e-05   3.978401e-05  
0.5032363      3.971329e-05   3.971329e-05  
0.5049672      3.964285e-05   3.964285e-05  
0.5067042      3.957243e-05   3.957243e-05  
0.5084411      3.950228e-05   3.950228e-05  
0.5101842      3.943215e-05   3.943215e-05  
0.5119274      3.936229e-05   3.936229e-05  
0.5136705      3.929269e-05   3.929269e-05  
0.5154199      3.922311e-05   3.922311e-05  
0.5171692      3.91538e-05    3.91538e-05   
0.518925       3.90845e-05    3.90845e-05   
0.5206807      3.901547e-05   3.901547e-05  
0.5224365      3.89467e-05    3.89467e-05   
0.5241987      3.887794e-05   3.887794e-05  
0.5259609      3.880944e-05   3.880944e-05  
0.5277232      3.87412e-05    3.87412e-05   
0.529492       3.867296e-05   3.867296e-05  
0.5312608      3.860498e-05   3.860498e-05  
0.5330363      3.853701e-05   3.853701e-05  
0.5348119      3.846929e-05   3.846929e-05  
0.5365874      3.840183e-05   3.840183e-05  
0.5383698      3.833437e-05   3.833437e-05  
0.5401521      3.826715e-05   3.826715e-05  
0.5419345      3.82002e-05    3.82002e-05   
0.5437238      3.813323e-05   3.813323e-05  
0.5455131      3.806652e-05   3.806652e-05  
0.5473095      3.79998e-05    3.79998e-05   
0.5491059      3.793332e-05   3.793332e-05  
0.5509023      3.78671e-05    3.78671e-05   
0.5527059      3.780086e-05   3.780086e-05  
0.5545095      3.773487e-05   3.773487e-05  
0.5563131      3.766913e-05   3.766913e-05  
0.5581241      3.760337e-05   3.760337e-05  
0.559935       3.753786e-05   3.753786e-05  
0.561746       3.747259e-05   3.747259e-05  
0.5635645      3.740729e-05   3.740729e-05  
0.565383       3.734224e-05   3.734224e-05  
0.5672014      3.727744e-05   3.727744e-05  
0.5690276      3.72126e-05    3.72126e-05   
0.5708537      3.714801e-05   3.714801e-05  
0.5726799      3.708365e-05   3.708365e-05  
0.5745061      3.701954e-05   3.701954e-05  
0.5763401      3.695539e-05   3.695539e-05  
0.5781741      3.689148e-05   3.689148e-05  
0.5800081      3.68278e-05    3.68278e-05   
0.5818502      3.676408e-05   3.676408e-05  
0.5836923      3.67006e-05    3.67006e-05   
0.5855343      3.663736e-05   3.663736e-05  
0.5873846      3.657407e-05   3.657407e-05  
0.5892349      3.651101e-05   3.651101e-05  
0.5910852      3.644819e-05   3.644819e-05  
0.5929355      3.638559e-05   3.638559e-05  
0.5947943      3.632295e-05   3.632295e-05  
0.596653       3.626053e-05   3.626053e-05  
0.5985117      3.619835e-05   3.619835e-05  
0.6003705      3.613639e-05   3.613639e-05  
0.6022379      3.607438e-05   3.607438e-05  
0.6041053      3.601259e-05   3.601259e-05  
0.6059728      3.595103e-05   3.595103e-05  
0.6078402      3.58897e-05    3.58897e-05   
0.6097166      3.58283e-05    3.58283e-05   
0.6115929      3.576713e-05   3.576713e-05  
0.6134693      3.570618e-05   3.570618e-05  
0.6153456      3.564545e-05   3.564545e-05  
0.6172312      3.558465e-05   3.558465e-05  
0.6191168      3.552407e-05   3.552407e-05  
0.6210023      3.546371e-05   3.546371e-05  
0.6228879      3.540358e-05   3.540358e-05  
0.6247829      3.534336e-05   3.534336e-05  
0.626678       3.528336e-05   3.528336e-05  
0.628573       3.522358e-05   3.522358e-05  
0.630468       3.516402e-05   3.516402e-05  
0.6323728      3.510437e-05   3.510437e-05  
0.6342776      3.504493e-05   3.504493e-05  
0.6361824      3.498571e-05   3.498571e-05  
0.6380872      3.492671e-05   3.492671e-05  
0.6399921      3.486792e-05   3.486792e-05  
0.641907       3.480903e-05   3.480903e-05  
0.6438219      3.475036e-05   3.475036e-05  
0.6457369      3.46919e-05    3.46919e-05   
0.6476518      3.463365e-05   3.463365e-05  
0.6495772      3.457529e-05   3.457529e-05  
0.6515026      3.451715e-05   3.451715e-05  
0.653428       3.445921e-05   3.445921e-05  
0.6553534      3.440149e-05   3.440149e-05  
0.6572788      3.434397e-05   3.434397e-05  
0.6592151      3.428634e-05   3.428634e-05  
0.6611513      3.422891e-05   3.422891e-05  
0.6630876      3.417169e-05   3.417169e-05  
0.6650239      3.411468e-05   3.411468e-05  
0.6669714      3.405754e-05   3.405754e-05  
0.668919       3.400061e-05   3.400061e-05  
0.6708665      3.394388e-05   3.394388e-05  
0.672814       3.388736e-05   3.388736e-05  
0.6747616      3.383104e-05   3.383104e-05  
0.6767209      3.377458e-05   3.377458e-05  
0.6786801      3.371833e-05   3.371833e-05  
0.6806394      3.366227e-05   3.366227e-05  
0.6825987      3.360642e-05   3.360642e-05  
0.6845579      3.355077e-05   3.355077e-05  
0.6865294      3.349497e-05   3.349497e-05  
0.6885009      3.343937e-05   3.343937e-05  
0.6904725      3.338397e-05   3.338397e-05  
0.692444       3.332877e-05   3.332877e-05  
0.6944155      3.327377e-05   3.327377e-05  
0.696387       3.321896e-05   3.321896e-05  
0.6983714      3.316399e-05   3.316399e-05  
0.7003558      3.310921e-05   3.310921e-05  
0.7023402      3.305463e-05   3.305463e-05  
0.7043246      3.300025e-05   3.300025e-05  
0.706309       3.294606e-05   3.294606e-05  
0.7082934      3.289206e-05   3.289206e-05  
0.7102914      3.283789e-05   3.283789e-05  
0.7122894      3.27839e-05    3.27839e-05   
0.7142874      3.273011e-05   3.273011e-05  
0.7162854      3.267651e-05   3.267651e-05  
0.7182833      3.26231e-05    3.26231e-05   
0.7202813      3.256988e-05   3.256988e-05  
0.7222937      3.251647e-05   3.251647e-05  
0.7243061      3.246325e-05   3.246325e-05  
0.7263184      3.241021e-05   3.241021e-05  
0.7283308      3.235737e-05   3.235737e-05  
0.7303432      3.230471e-05   3.230471e-05  
0.7323555      3.225223e-05   3.225223e-05  
0.7343679      3.219994e-05   3.219994e-05  
0.7363956      3.214744e-05   3.214744e-05  
0.7384233      3.209512e-05   3.209512e-05  
0.7404511      3.204299e-05   3.204299e-05  
0.7424788      3.199105e-05   3.199105e-05  
0.7445065      3.193928e-05   3.193928e-05  
0.7465342      3.18877e-05    3.18877e-05   
0.748562       3.18363e-05    3.18363e-05   
0.7506062      3.178466e-05   3.178466e-05  
0.7526504      3.173321e-05   3.173321e-05  
0.7546946      3.168194e-05   3.168194e-05  
0.7567388      3.163085e-05   3.163085e-05  
0.758783       3.157994e-05   3.157994e-05  
0.7608272      3.15292e-05    3.15292e-05   
0.7628714      3.147865e-05   3.147865e-05  
0.7649157      3.142827e-05   3.142827e-05  
0.7669778      3.137763e-05   3.137763e-05  
0.7690399      3.132716e-05   3.132716e-05  
0.7711021      3.127688e-05   3.127688e-05  
0.7731642      3.122677e-05   3.122677e-05  
0.7752264      3.117683e-05   3.117683e-05  
0.7772885      3.112707e-05   3.112707e-05  
0.7793507      3.107748e-05   3.107748e-05  
0.7814128      3.102807e-05   3.102807e-05  
0.783475       3.097883e-05   3.097883e-05  
0.7855371      3.092976e-05   3.092976e-05  
0.7875992      3.088086e-05   3.088086e-05  
0.7896614      3.083213e-05   3.083213e-05  
0.7917235      3.078357e-05   3.078357e-05  
0.7938063      3.07347e-05    3.07347e-05   
0.7958891      3.068599e-05   3.068599e-05  
0.7979718      3.063746e-05   3.063746e-05  
0.8000546      3.058909e-05   3.058909e-05  
0.8021373      3.05409e-05    3.05409e-05   
0.8042201      3.049287e-05   3.049287e-05  
0.8063029      3.0445e-05     3.0445e-05    
0.8083856      3.03973e-05    3.03973e-05   
0.8104684      3.034977e-05   3.034977e-05  
0.8125743      3.030187e-05   3.030187e-05  
0.8146802      3.025414e-05   3.025414e-05  
0.8167861      3.020658e-05   3.020658e-05  
0.818892       3.015918e-05   3.015918e-05  
0.8209979      3.011195e-05   3.011195e-05  
0.8231038      3.006488e-05   3.006488e-05  
0.8252098      3.001797e-05   3.001797e-05  
0.8273157      2.997123e-05   2.997123e-05  
0.8294216      2.992465e-05   2.992465e-05  
0.8315275      2.987822e-05   2.987822e-05  
0.8336334      2.983196e-05   2.983196e-05  
0.8357393      2.978586e-05   2.978586e-05  
0.8378452      2.973992e-05   2.973992e-05  
0.8399511      2.969413e-05   2.969413e-05  
0.8420851      2.964789e-05   2.964789e-05  
0.8442191      2.960182e-05   2.960182e-05  
0.8463531      2.95559e-05    2.95559e-05   
0.848487       2.951014e-05   2.951014e-05  
0.850621       2.946454e-05   2.946454e-05  
0.852755       2.94191e-05    2.94191e-05   
0.854889       2.937381e-05   2.937381e-05  
0.857023       2.932868e-05   2.932868e-05  
0.859157       2.92837e-05    2.92837e-05   
0.861291       2.923888e-05   2.923888e-05  
0.8634249      2.919421e-05   2.919421e-05  
0.8655589      2.91497e-05    2.91497e-05   
0.8676929      2.910534e-05   2.910534e-05  
0.8698269      2.906113e-05   2.906113e-05  
0.8719609      2.901707e-05   2.901707e-05  
0.8740949      2.897316e-05   2.897316e-05  
0.8762656      2.892864e-05   2.892864e-05  
0.8784364      2.888428e-05   2.888428e-05  
0.8806072      2.884008e-05   2.884008e-05  
0.882778       2.879602e-05   2.879602e-05  
0.8849488      2.875212e-05   2.875212e-05  
0.8871195      2.870837e-05   2.870837e-05  
0.8892903      2.866477e-05   2.866477e-05  
0.8914611      2.862132e-05   2.862132e-05  
0.8936319      2.857801e-05   2.857801e-05  
0.8958026      2.853486e-05   2.853486e-05  
0.8979734      2.849185e-05   2.849185e-05  
0.9001442      2.844899e-05   2.844899e-05  
0.902315       2.840628e-05   2.840628e-05  
0.9044858      2.836371e-05   2.836371e-05  
0.9066565      2.832129e-05   2.832129e-05  
0.9088273      2.827901e-05   2.827901e-05  
0.9109981      2.823688e-05   2.823688e-05  
0.9131689      2.819489e-05   2.819489e-05  
0.9153397      2.815304e-05   2.815304e-05  
0.9175104      2.811133e-05   2.811133e-05  
0.9196812      2.806976e-05   2.806976e-05  
0.921852       2.802833e-05   2.802833e-05  
0.9240228      2.798705e-05   2.798705e-05  
0.9261935      2.79459e-05    2.79459e-05   
0.9283643      2.790489e-05   2.790489e-05  
0.9305351      2.786402e-05   2.786402e-05  
0.9327059      2.782329e-05   2.782329e-05  
0.9348767      2.778269e-05   2.778269e-05  
0.9370474      2.774223e-05   2.774223e-05  
0.9392182      2.770191e-05   2.770191e-05  
0.941389       2.766172e-05   2.766172e-05  
0.9435598      2.762166e-05   2.762166e-05  
0.9457305      2.758174e-05   2.758174e-05  
0.9479013      2.754195e-05   2.754195e-05  
0.9500721      2.750229e-05   2.750229e-05  
0.9522429      2.746276e-05   2.746276e-05  
0.9544137      2.742337e-05   2.742337e-05  
0.9565844      2.738411e-05   2.738411e-05  
0.9587552      2.734497e-05   2.734497e-05  
0.960926       2.730597e-05   2.730597e-05  
0.9630968      2.72671e-05    2.72671e-05   
0.9652675      2.722835e-05   2.722835e-05  
0.9674383      2.718973e-05   2.718973e-05  
0.9696091      2.715124e-05   2.715124e-05  
0.9717799      2.711288e-05   2.711288e-05  
0.9739507      2.707464e-05   2.707464e-05  
0.9761214      2.703653e-05   2.703653e-05  
0.9782922      2.699854e-05   2.699854e-05  
0.980463       2.696068e-05   2.696068e-05  
0.9826338      2.692295e-05   2.692295e-05  
0.9848046      2.688533e-05   2.688533e-05  
0.9869753      2.684784e-05   2.684784e-05  
0.9891461      2.681047e-05   2.681047e-05  