# Probe 0 (0 0 0)
# Probe 1 (0 0.011 0)
# Time         0              1             
60             2.7661e-05     2.7661e-05    
