/*--------------------------------*- C++ -*----------------------------------*\
  =========                 |
  \\      /  F ield         | OpenFOAM: The Open Source CFD Toolbox
   \\    /   O peration     | Website:  https://openfoam.org
    \\  /    A nd           | Version:  8
     \\/     M anipulation  |
\*---------------------------------------------------------------------------*/
FoamFile
{
    version     2.0;
    format      ascii;
    class       volScalarField;
    location    "0";
    object      thicknessFraction;
}
// * * * * * * * * * * * * * * * * * * * * * * * * * * * * * * * * * * * * * //

dimensions      [0 0 0 0 0 0 0];

internalField   uniform 0;

boundaryField
{
    boundaries
    {
        type            fixedValue;
        value           nonuniform List<scalar> 0();
    }
    top
    {
        type            fixedValue;
        value           uniform 0;
    }
    cylinder_1
    {
        type            fixedValue;
        value           nonuniform List<scalar> 0();
    }
    cylinder_1_slave
    {
        type            fixedValue;
        value           nonuniform List<scalar> 0();
    }
    geo_100_mL_Wheel
    {
        type            fixedValue;
        value           nonuniform List<scalar> 
27581
(
0
0
0
0
0
0
0
0
0
0
0
0
0
0
0
0
0
0
0
0
0
0
0
0
0
0
0
0
0
0
0
0
0
0
0
0
0
0
0
0
0
0
0
0
0
0
0
0
0
0
0
0
0
0
0
0
0
0
0
0
0
0
0
0
0
0
0
0
0
0
0
0
0
0
0
0
0
0
0
0
0
0
0
0
0
0
0
0
0
0
0
0
0
0
0
0
0
0
0
0
0
0
0
0
0
0
0
0
0
0
0
0
0
0
0
0
0
0
0
0
0
0
0
0
0
0
0
0
0
0
0
0
0
0
0
0
0
0
0
0
0
0
0
0
0
0
0
0
0
0
0
0
0
0
0
0
0
0
0
0
0
0
0
0
0
0
0
0
0
0
0
0
0
0
0
0
0
0
0
0
0
0
0
0
0
0
0
0
0
0
0
0
0
0
0
0
0
0
0
0
0
0
0
0
0
0
0
0
0
0
0
0
0
0
0
0
0
0
0
0
0
0
0
0
0
0
0
0
0
0
0
0
0
0
0
0
0
0
0
0
0
0
0
0
0
0
0
0
0
0
0
0
0
0
0
0
0
0
0
0
0
0
0
0
0
0
0
0
0
0
0
0
0
0
0
0
0
0
0
0
0
0
0
0
0
0
0
0
0
0
0
0
0
0
0
0
0
0
0
0
0
0
0
0
0
0
0
0
0
0
0
0
0
0
0
0
0
0
0
0
0
0
0
0
0
0
0
0
0
0
0
0
0
0
0
0
0
0
0
0
0
0
0
0
0
0
0
0
0
0
0
0
0
0
0
0
0
0
0
0
0
0
0
0
0
0
0
0
0
0
0
0
0
0
0
0
0
0
0
0
0
0
0
0
0
0
0
0
0
0
0
0
0
0
0
0
0
0
0
0
0
0
0
0
0
0
0
0
0
0
0
0
0
0
0
0
0
0
0
0
0
0
0
0
0
0
0
0
0
0
0
0
0
0
0
0
0
0
0
0
0
0
0
0
0
0
0
0
0
0
0
0
0
0
0
0
0
0
0
0
0
0
0
0
0
0
0
0
0
0
0
0
0
0
0
0
0
0
0
0
0
0
0
0
0
0
0
0
0
0
0
0
0
0
0
0
0
0
0
0
0
0
0
0
0
0
0
0
0
0
0
0
0
0
0
0
0
0
0
0
0
0
0
0
0
0
0
0
0
0
0
0
0
0
0
0
0
0
0
0
0
0
0
0
0
0
0
0
0
0
0
0
0
0
0
0
0
0
0
0
0
0
0
0
0
0
0
0
0
0
0
0
0
0
0
0
0
0
0
0
0
0
0
0
0
0
0
0
0
0
0
0
0
0
0
0
0
0
0
0
0
0
0
0
0
0
0
0
0
0
0
0
0
0
0
0
0
0
0
0
0
0
0
0
0
0
0
0
0
0
0
0
0
0
0
0
0
0
0
0
0
0
0
0
0
0
0
0
0
0
0
0
0
0
0
0
0
0
0
0
0
0
0
0
0
0
0
0
0
0
0
0
0
0
0
0
0
0
0
0
0
0
0
0
0
0
0
0
0
0
0
0
0
0
0
0
0
0
0
0
0
0
0
0
0
0
0
0
0
0
0
0
0
0
0
0
0
0
0
0
0
0
0
0
0
0
0
0
0
0
0
0
0
0
0
0
0
0
0
0
0
0
0
0
0
0
0
0
0
0
0
0
0
0
0
0
0
0
0
0
0
0
0
0
0
0
0
0
0
0
0
0
0
0
0
0
0
0
0
0
0
0
0
0
0
0
0
0
0
0
0
0
0
0
0
0
0
0
0
0
0
0
0
0
0
0
0
0
0
0
0
0
0
0
0
0
0
0
0
0
0
0
0
0
0
0
0
0
0
0
0
0
0
0
0
0
0
0
0
0
0
0
0
0
0
0
0
0
0
0
0
0
0
0
0
0
0
0
0
0
0
0
0
0
0
0
0
0
0
0
0
0
0
0
0
0
0
0
0
0
0
0
0
0
0
0
0
0
0
0
0
0
0
0
0
0
0
0
0
0
0
0
0
0
0
0
0
0
0
0
0
0
0
0
0
0
0
0
0
0
0
0
0
0
0
0
0
0
0
0
0
0
0
0
0
0
0
0
0
0
0
0
0
0
0
0
0
0
0
0
0
0
0
0
0
0
0
0
0
0
0
0
0
0
0
0
0
0
0
0
0
0
0
0
0
0
0
0
0
0
0
0
0
0
0
0
0
0
0
0
0
0
0
0
0
0
0
0
0
0
0
0
0
0
0
0
0
0
0
0
0
0
0
0
0
0
0
0
0
0
0
0
0
0
0
0
0
0
0
0
0
0
0
0
0
0
0
0
0
0
0
0
0
0
0
0
0
0
0
0
0
0
0
0
0
0
0
0
0
0
0
0
0
0
0
0
0
0
0
0
0
0
0
0
0
0
0
0
0
0
0
0
0
0
0
0
0
0
0
0
0
0
0
0
0
0
0
0
0
0
0
0
0
0
0
0
0
0
0
0
0
0
0
0
0
0
0
0
0
0
0
0
0
0
0
0
0
0
0
0
0
0
0
0
0
0
0
0
0
0
0
0
0
0
0
0
0
0
0
0
0
0
0
0
0
0
0
0
0
0
0
0
0
0
0
0
0
0
0
0
0
0
0
0
0
0
0
0
0
0
0
0
0
0
0
0
0
0
0
0
0
0
0
0
0
0
0
0
0
0
0
0
0
0
0
0
0
0
0
0
0
0
0
0
0
0
0
0
0
0
0
0
0
0
0
0
0
0
0
0
0
0
0
0
0
0
0
0
0
0
0
0
0
0
0
0
0
0
0
0
0
0
0
0
0
0
0
0
0
0
0
0
0
0
0
0
0
0
0
0
0
0
0
0
0
0
0
0
0
0
0
0
0
0
0
0
0
0
0
0
0
0
0
0
0
0
0
0
0
0
0
0
0
0
0
0
0
0
0
0
0
0
0
0
0
0
0
0
0
0
0
0
0
0
0
0
0
0
0
0
0
0
0
0
0
0
0
0
0
0
0
0
0
0
0
0
0
0
0
0
0
0
0
0
0
0
0
0
0
0
0
0
0
0
0
0
0
0
0
0
0
0
0
0
0
0
0
0
0
0
0
0
0
0
0
0
0
0
0
0
0
0
0
0
0
0
0
0
0
0
0
0
0
0
0
0
0
0
0
0
0
0
0
0
0
0
0
0
0
0
0
0
0
0
0
0
0
0
0
0
0
0
0
0
0
0
0
0
0
0
0
0
0
0
0
0
0
0
0
0
0
0
0
0
0
0
0
0
0
0
0
0
0
0
0
0
0
0
0
0
0
0
0
0
0
0
0
0
0
0
0
0
0
0
0
0
0
0
0
0
0
0
0
0
0
0
0
0
0
0
0
0
0
0
0
0
0
0
0
0
0
0
0
0
0
0
0
0
0
0
0
0
0
0
0
0
0
0
0
0
0
0
0
0
0
0
0
0
0
0
0
0
0
0
0
0
0
0
0
0
0
0
0
0
0
0
0
0
0
0
0
0
0
0
0
0
0
0
0
0
0
0
0
0
0
0
0
0
0
0
0
0
0
0
0
0
0
0
0
0
0.0773594
0.1599147
0.6840179
0.4128408
0.6543005
0.3833326
0.9480142
0.7420735
0.9380259
0.8091634
0.4367322
0.3972409
0.8989269
0.1813833
0.7462785
0.7474653
0.8279614
0.4559555
0.647264
0.2253399
0.07200286
0.1433813
0.7363468
0.1656374
0.08370292
0.1193399
0.08132153
0.7923021
0.3158331
0.4230105
0.3199352
0.07532631
0.8922285
0.9356055
0.9781888
0.9365077
0.4343017
0.09808661
0.08875242
0.4494318
0.9945431
0.6415827
0.8121386
0.828246
0.2336123
0.6083522
0.1094167
0.1475008
0.1184913
0.7570019
0.5109428
0.7722808
0.112638
0.3702412
0.2389637
0.1474889
0.2775759
0.09613763
0.9029991
0.982105
0.9002415
0.07646449
0.2654007
0.07200286
0.3546898
0.1433813
0.0575441
0.2401493
0.4242159
0.4271046
0.8076693
0.6280961
0.509725
0.1705934
0.9988616
0.9994806
0.9998745
0.9999999
0.9994284
0.9999608
1
0.9989912
0.6528876
0.9989168
0.9999301
0.9274135
0.3939154
0.9577485
0.9586495
0.9999088
0.9930725
0.249165
0.99997
0.9999863
0.6313553
0.9833851
0.9997191
0.9996697
0.8984043
0.8672305
0.6832156
0.4489805
0.6691575
0.2337823
0.4806199
0.9799624
0.9896535
1
0.9998007
0.6535045
1
1
0.8743685
0.9977479
0.9883442
0.9842331
1
1
1
1
1
0.2405811
0.760438
0.9979632
0.9999967
0.9999954
0.9999997
1
1
1
0.8222239
0.9999985
1
1
0.9999998
1
1
0.7983244
0.9827675
0.9872643
0.06947387
0.9879615
0.9262265
0.5885925
0.9381015
0.9953526
0.9527765
0.9248039
1
0.9975476
0.9755179
0.9998129
0.8793771
0.8669212
0.278356
0.7556013
0.9991919
0.898676
0.9994743
0.9866496
0.896052
0.8831188
0.1774794
0.868692
0.999708
0.9999999
0.9937083
0.9972625
0.4025577
0.9455984
0.8697416
0.9999998
0.91045
0.9996986
1
0.928459
0.9535261
0.381952
0.5307319
0.9980764
0.2531396
0.9999998
0.9991447
0.9972312
0.9770769
0.9738852
0.9128442
0.9757779
0.4003429
0.9930949
0.9520403
0.9978999
1
0.9872065
0.9999208
0.9997592
0.9669267
0.3232614
0.2995485
0.3228504
0.9998829
0.9521409
0.8988739
0.991743
0.999582
0.9953787
0.6678337
0.996893
0.9999918
1
1
1
0.9365288
1
0.9899135
0.9999988
0.9999992
1
1
0.999919
0.9999302
1
1
0.9999102
0.9999999
0.5171865
0.9129978
0.9999999
0.8724414
0.3294633
0.9999808
0.9999873
0.9656192
0.9997365
0.5315687
0.6303633
0.9999996
1
0.25662
0.9729526
0.2467561
0.3837399
0.08135737
0.9074104
0.6899432
0.6787908
0.6162021
0.9982986
0.9966433
0.9716592
0.9951218
0.7575933
0.1671925
0.9255658
0.7959078
0.4988927
0.9970509
0.9999999
0.8110828
0.2648145
0.8936066
0.9007285
0.7906005
0.156737
0.9675335
0.9865504
0.9909778
0.9139485
0.9980798
0.9850599
0.8826635
0.8570718
0.284773
0.8946659
0.9997794
0.9969064
0.977639
0.7569874
0.9995325
0.999511
0.9987935
0.1849126
0.9092268
0.7358442
0.9635942
1
0.9678047
1
0.7262224
0.9956069
0.998513
1
0.7355428
0.9831845
1
0.9999998
0.9982983
0.9867331
1
0.9819623
0.5213037
0.9945835
0.9452614
0.999235
0.9910427
0.9663389
0.9548977
0.08924202
0.6664388
0.9948987
0.2251585
0.8981662
0.4799861
0.9106076
0.9996544
0.9575918
0.9259036
0.6747348
0.9999796
0.9998658
0.6366367
0.7650648
0.05280585
0.6376718
0.6377694
0.892632
0.8929223
0.1706659
0.9224618
0.9224934
0.9973746
0.9950821
0.9950821
0.9973746
0.9996932
0.9994806
0.9999636
0.9999997
0.8956546
0.999999
0.9999769
0.9999114
0.9999787
0.9988616
0.9999868
0.999999
0.9999997
0.9999636
0.8956546
0.9996932
0.2524815
0.9989912
0.6547643
0.9927781
0.9547322
0.9651205
0.7602544
0.9966655
0.9999033
0.9890866
0.9775619
0.9927781
0.6547643
0.9547322
0.2524815
0.249165
0.9930725
0.9991122
0.9725277
0.3214441
0.9477009
0.9821486
0.9180321
0.2617415
0.6528876
0.9991113
0.9725277
0.9997262
0.9999992
0.9999786
0.9885433
0.9933671
0.9999595
0.9487512
0.6709216
0.9998843
0.8879552
0.9883911
0.9997863
0.7181311
0.3725989
0.7251533
0.7098054
0.9736629
0.2873069
0.6297586
0.9777965
0.6264869
0.7825564
0.6164057
0.2686567
0.7638277
0.6885432
0.9884052
0.9766262
0.8337009
0.1434959
0.2458451
0.9712173
1
1
0.9999013
0.7422805
0.6122805
1
1
1
1
1
1
0.9629417
0.9962635
0.9940081
0.8504353
0.9990977
0.985304
0.9580565
0.9090465
0.9482788
0.9999099
1
1
1
1
1
1
1
1
0.9999995
0.2461366
0.9888585
0.4690608
0.9796626
0.999939
0.9999945
1
0.9998912
1
1
1
1
1
0.9999995
0.8702113
0.6655527
0.9895131
0.9998534
0.9650103
0.9999996
1
1
1
1
1
1
0.9999949
0.1852038
0.08560916
0.9999834
1
1
0.9999768
1
1
0.9963453
1
0.9999998
0.9963453
0.7842236
0.8796414
0.8856049
0.984097
0.9992251
0.9992298
0.9838921
0.8854376
0.8807585
0.7798532
0.8514361
0.844764
0.2479908
0.2479908
1
1
1
1
1
0.813167
0.9915857
0.4358652
0.9988369
0.9893764
0.9893764
0.9995325
0.9712875
0.9713205
0.9995325
0.6508541
0.8941437
0.1845997
0.6164188
1
0.9669819
0.1828579
0.9872411
0.777127
0.7817617
1
1
0.7824949
0.7420665
1
1
0.9079939
0.1900526
0.7307313
1
0.9755945
0.9616352
0.9992408
0.9076747
0.1753373
0.9999325
0.9955977
0.9812217
0.8097276
0.2317165
0.7977963
0.997208
0.9988872
0.9995469
1
0.4407589
0.9995469
0.9994821
0.6487828
0.6487828
0.9991476
0.9485378
0.9999932
0.07005911
0.2957488
0.9369802
0.9991476
0.9485378
0.9999756
0.387972
0.3898594
0.242592
0.8842301
0.2537178
0.9999384
0.9821162
0.2737464
0.9821162
0.2737464
0.9983588
0.9983588
0.9187773
0.9955578
1
0.8946634
0.9857298
0.9994744
0.9028046
0.8054908
0.8868897
0.1774794
1
1
1
1
0.7379465
0.2256434
0.7077218
0.9943672
0.6784092
0.6781321
0.9803641
0.9721055
0.6640584
0.3129419
0.3746324
0.189713
0.4763368
0.5654816
0.3511152
0.9959443
0.5071616
0.8610931
0.9981863
0.9089395
0.966199
0.7683041
0.7552764
0.3183783
0.4173098
1
0.9777192
0.4797172
0.9091447
0.328596
0.7402517
0.913849
0.9346244
0.8024384
0.3331138
0.2716952
0.7041041
1
1
0.9823657
0.9990405
0.9278294
0.2632312
0.9958356
0.9683874
0.2539415
0.8471652
0.9654454
0.9941679
0.8792389
0.07800681
0.9864511
0.7386996
0.6226775
0.283166
0.3730676
1
1
0.9991982
0.9630629
0.9971514
0.9870372
0.8856452
0.6326108
0.9848718
0.99788
0.6507071
0.9201134
0.9955416
0.90533
0.958589
0.7933244
0.8847022
0.7096602
0.7735485
0.7583408
0.7076202
0.4669236
1
0.9815338
0.9338236
0.7875309
0.2317654
0.7643829
0.503566
0.2483878
0.798271
0.07154086
0.8957873
0.919312
0.1748739
0.1754927
0.867837
0.470309
0.07541291
0.433014
0.6710881
0.8562645
0.2786902
0.9998477
0.3709357
0.6297141
0.2849855
0.2111263
0.2440861
0.26196
0.7905455
0.09302518
0.912704
0.8851395
0.9979299
0.3651893
0.381529
0.4550493
0.4284623
0.6538305
0.6862368
0.7339414
0.9979742
0.9996354
1
0.9996354
0.4839383
0.771838
0.4839383
0.7718376
0.8974046
0.9475895
0.2606767
0.9581824
0.1875978
0.7638024
0.8974046
0.9475895
0.9924542
0.890055
0.2021312
0.2710134
0.9927443
0.705387
0.7053871
0.9987571
0.9987571
0.4003431
0.9337001
0.9897994
1
0.2758566
0.4743173
0.1797837
0.8098575
0.3504942
0.2436051
0.2401271
0.7750358
0.9817094
0.9998957
0.6414538
0.9817094
0.9998957
0.9007968
0.999145
0.900797
0.9991478
0.242792
0.1703254
0.9536694
0.2173868
0.9962154
0.7891384
0.2969441
0.1878986
0.9999068
0.9956511
0.3330768
1
1
0.999999
0.9999912
1
0.6571874
0.9999912
1
0.9998979
0.9999998
0.9999009
1
0.1057093
0.7447222
0.1261379
0.8974641
0.9930293
0.2232335
0.6489388
0.7816093
0.8460927
0.171731
0.8384538
1
0.9999912
1
0.9999912
1
0.9999009
1
0.9999009
0.05706697
0.6125199
0.9565946
0.1960545
0.8522126
0.7877646
0.4794787
0.7753826
0.5813908
0.9766192
0.6593958
0.08602379
0.7948845
0.9998957
0.9817094
0.9998957
0.9817094
0.9991478
0.9007969
0.9991478
0.900797
0.8129968
0.9240117
0.926957
0.9896921
0.9987064
0.9994756
0.986161
0.9008972
0.8979346
0.8101692
0.8913409
0.888799
0.1856356
0.1856755
0.1435747
0.9161371
0.999916
0.8624131
0.9671353
0.9454736
0.5605457
0.9703601
0.9943672
0.6784114
0.6784092
0.9972625
0.9907535
0.9803606
0.9972625
0.9708915
0.9090094
0.7598461
0.8219645
0.1889753
0.7604247
0.995265
0.660957
0.4738779
0.3649925
0.9347115
0.3885994
0.4918137
0.9999962
0.8431999
0.9860481
0.6246673
0.6365517
0.6150226
0.7966912
0.6099867
0.3723779
0.2896225
0.1142628
0.5811622
0.7750759
1
0.7116043
0.07570334
0.2161634
0.7969952
0.5890178
0.9845311
0.08380013
0.988442
0.9075023
0.3806217
0.8949456
0.9471618
0.9785675
1
1
0.2286627
0.07018261
0.9900796
0.3326845
0.9333577
0.9697498
0.9192153
0.718492
0.9874837
0.7849334
0.9943661
0.9988612
1
1
0.934359
0.2535715
0.8456071
0.2049274
0.9002869
0.222574
0.196088
0.2929439
0.07792543
0.9844413
0.3254851
0.974236
1
0.6431432
0.8213939
0.9205192
0.4789322
0.7636006
0.7070568
0.6258903
0.4482297
0.6519152
1
0.9979865
0.7761128
0.1309126
0.919325
0.8521664
0.9913501
0.9999998
0.9996354
0.5526385
0.3172863
1
0.9996354
0.7718323
0.4839383
0.4839384
0.9475894
0.8974046
0.999999
1
1
0.999999
0.9475895
0.8974046
0.9932312
1
1
0.9932312
0.7053872
0.7053872
0.4003431
0.9987571
0.9987571
0.9392
0.9995546
0.990362
0.9124874
0.9876281
0.9992275
0.8901427
0.7877054
0.8540306
0.8862979
0.9391663
0.2848423
0.7561879
0.08337227
0.9994619
0.9196866
0.9891657
0.999981
0.9988369
0.9893542
0.9893764
0.9995325
0.9359002
0.9712729
0.8011172
0.2224235
0.8639635
0.8868848
0.136233
0.2685634
0.7568682
0.05389327
0.9999928
0.2917089
1
0.9877289
0.7785234
1
0.7244203
1
0.4151439
0.6302143
0.9529946
0.4501387
0.9739939
0.1671487
0.3335515
0.9685011
0.9972167
0.9880876
0.9995469
0.5735844
0.9995469
0.6487828
0.9994821
0.6487828
0.9485378
0.9991476
0.9999929
1
0.9988485
0.9485378
0.9991476
0.9999756
1
0.9999756
0.2737464
0.9821162
0.2737464
0.9821162
0.9983588
0.9983588
0.5213037
0.9182663
0.9498646
0.9938991
0.9986483
0.9981322
0.846877
0.9981322
0.9986483
0.9997032
0.9998051
0.9999695
1
0.9996873
0.9999999
0.9999911
0.9999122
0.7889489
0.3924883
0.9999993
0.9996873
0.9999995
0.9999999
0.9663387
0.9998051
1
0.9999695
0.9997032
0.2524814
0.9989917
0.6547641
0.9927781
0.9997581
0.9927078
0.733524
0.8701617
0.6245637
0.9999971
1
0.9999976
0.9999493
0.9548977
0.9989917
0.9927781
0.6547643
0.2524815
0.2491649
0.9725147
0.6528874
0.9930726
0.9991119
0.7182993
0.9852574
0.5550872
0.9773695
0.1901739
0.2407024
0.6659178
0.9999913
0.9999719
0.9995334
0.9449248
0.9725277
0.9930724
0.6528876
0.9991066
0.2491651
0.9997189
0.9587398
0.9999449
0.9991021
0.9113912
0.9793597
0.9988083
0.9972699
0.8867031
0.9865987
0.8753226
0.9985121
0.7347985
0.8961201
0.739422
0.9885152
0.9646296
0.999733
0.9137227
0.9997025
0.7530027
0.4482209
0.6937198
0.9998076
0.9994924
0.8394579
0.944621
0.9971692
0.8607049
0.1521547
0.1489994
0.6429591
0.3789457
0.9134369
0.1465017
0.888881
0.09486951
0.7424907
0.5618786
0.7673404
0.4018599
0.7647202
0.9079872
0.5796277
0.2085749
0.9753728
0.9986438
0.9998972
0.9999461
0.9450474
0.9994768
0.9293684
0.6795814
0.8409946
0.7888033
0.7597512
0.9983705
0.9770378
0.999707
0.995419
0.9999938
0.9999997
0.9999099
0.9999773
1
1
0.891039
0.4889024
0.9957243
0.880496
0.9045107
0.7593957
0.79107
0.2681412
0.9723867
0.8900275
0.9962429
0.9999995
1
1
0.9998912
1
1
1
1
1
0.9999721
0.9131532
0.9471472
0.9991577
0.9821297
0.3933663
0.9956423
0.2796276
0.8943357
0.9965026
1
1
1
1
1
1
1
0.9999949
0.9999999
0.999959
1
0.9998975
0.9993706
0.9999947
0.9998637
0.9999999
1
0.9999796
1
1
0.9963453
0.9999998
1
1
1
0.9963453
1
0.9999998
0.6389518
0.6804914
0.8915297
0.9143465
0.1449232
0.1666848
0.223899
0.3859938
0.4361232
0.6329718
0.9682678
0.9975827
0.9992719
0.9910093
0.9975174
0.9998371
0.9971
0.9767181
0.8425131
0.9161096
0.9998801
0.9999721
0.990603
0.9982198
0.9969194
0.9996829
0.9999999
0.9887239
0.9998609
0.6399212
0.8760996
0.7253508
0.9805661
0.9999626
0.9864351
0.918898
0.8918187
0.9993107
0.6625629
0.9813931
0.9895531
0.962961
0.7761889
0.9985969
0.9983468
0.9998734
0.9983382
0.9800153
0.9771978
0.9373899
0.9711887
0.9768173
0.599762
0.8719737
0.6860981
0.9673492
0.9971627
1
1
0.9997447
0.9985107
0.9387732
0.2565592
0.7646016
1
1
1
1
1
1
1
0.8743166
0.6640732
0.9961308
0.9958768
0.9999849
0.9740421
0.9999571
0.9998725
0.9964671
1
1
0.9270704
0.237452
0.6237506
1
1
1
1
1
1
1
1
1
1
0.8719974
0.4573248
0.648039
0.6865109
0.9989494
1
1
1
1
1
0.9999714
0.9999996
0.9999949
1
0.9999996
0.9999995
0.9999998
0.9999994
0.9999993
0.256655
0.8230442
0.7983244
0.8230442
0.9996101
0.9827675
0.9996101
0.7204211
0.2923309
0.86489
0.6826961
0.7099123
0.9129029
0.1107598
0.6210815
0.5160963
0.5800192
0.3477646
1
0.8995792
1
0.9999808
0.7665203
0.9994712
0.9956326
0.7063699
0.9820638
0.7749381
0.8310296
0.6595388
0.6801288
0.2489063
0.2406422
0.4561712
0.6606656
0.7609459
0.4665213
0.3808327
0.3112795
0.9168821
0.8737507
0.8725599
0.9655227
0.9208102
1
0.9829749
0.9585714
0.9360863
0.8931633
0.849037
0.8224119
0.9907154
0.9729545
0.990453
0.9695777
0.9348762
0.2723774
0.6848721
0.9652051
0.745808
0.868692
0.9652051
0.9997364
0.9888889
0.9999978
0.999708
0.9997364
0.9269052
0.9731409
0.9812115
0.7085559
0.7874758
0.7073934
0.3048529
0.7802561
0.7415616
0.9997847
0.9997719
0.9988972
0.7124071
0.8214446
0.9999319
0.8452791
0.6767467
0.2505908
0.110489
0.9238801
0.9339228
0.9524409
0.9753685
0.9094264
0.9039496
0.9496249
0.9638965
0.9984567
0.9971829
0.9838744
0.9713528
0.9746358
0.9994884
0.9991523
0.9652064
0.9778491
0.9992744
0.956621
0.9717357
0.9999141
1
0.9859853
1
0.9866895
0.7971835
0.996986
0.9844657
0.9999965
0.999981
0.2656224
0.9999974
0.9960041
0.9780323
0.9998351
0.9856035
0.974859
0.6314539
0.9418194
0.9267455
0.6956674
0.6116048
0.2083077
0.3522889
0.4312257
0.9514402
0.4302741
0.3612307
0.7827552
0.9987989
0.9984593
0.6611223
0.6625438
0.8829217
0.3250206
0.2080717
0.9135412
0.878866
0.2436758
0.9802592
0.913794
0.8164778
0.7857577
0.2585627
0.9265635
0.9388638
0.9439058
0.9697702
0.999984
0.9991313
0.9997804
0.8916234
0.9711098
0.9999999
0.9049471
0.9999208
0.9999999
0.9477818
0.4705562
0.9999528
0.6929589
0.06527531
0.5445902
0.583348
0.4134704
0.07244727
0.9993979
0.9517017
0.9998282
0.9402328
0.9191011
0.9722437
0.481288
0.1937773
0.9988129
0.8564918
0.8577781
0.9943576
0.1875858
0.4295601
0.9998976
0.9999918
1
1
1
0.9999887
0.9963933
0.3160436
0.7639049
1
1
0.9080329
0.9998757
0.2068264
0.9998757
0.9989432
0.9999993
0.9998845
1
0.9999994
1
1
1
0.9959016
1
0.7013091
0.2868295
1
0.9999632
0.2704672
0.2715855
1
0.9999996
1
0.216159
0.8591545
1
0.9999943
0.9997994
1
1
1
0.9998757
0.8188603
0.9940989
0.7332289
1
1
0.9990946
0.99411
0.9999208
0.7968349
0.9825696
0.1835187
0.1766562
0.9999999
0.9999208
0.9744686
0.9923106
0.3297718
0.172424
0.9961594
0.3045319
1
1
0.2987247
0.999079
0.9191011
0.9989485
0.9999992
0.9992876
1
0.9999998
0.9991047
0.684304
0.2688596
0.8979954
0.9656187
0.8979738
0.9997609
0.9997365
0.9997609
0.9911996
0.9854171
0.9997613
0.9982759
0.9465573
0.9273901
0.9755805
0.3600155
0.9231165
0.9227653
0.2058344
0.1875009
0.4848577
0.09600829
0.187201
0.8231014
0.9966274
0.9958424
0.2637589
0.9227496
0.8324806
0.9842555
0.2261626
0.2463429
0.999046
0.9748986
0.9660613
0.9792908
0.97593
0.9998819
0.9989778
0.9990312
0.4524875
0.05988876
0.99914
0.9956311
0.08909211
0.09033712
0.6885486
0.41975
0.2477704
0.6293167
0.2217934
0.3303102
0.7741447
0.895523
0.9728875
0.9003998
0.7912002
0.8161748
0.7350683
1
0.9998349
1
0.8991595
0.8645264
0.9064187
0.9346649
0.9242858
0.9986819
0.9536565
0.9873687
0.8803658
0.8991663
0.8229122
0.8306274
0.8023159
0.8533054
0.9772898
0.9936865
0.9682342
0.9958496
0.9389266
0.8933689
0.3753782
0.9340289
0.8946398
0.9340274
0.9831081
0.9999919
0.9999759
0.9896214
0.9886734
0.9588285
0.4697624
0.4015547
0.7335202
0.4069077
0.3137776
0.7208926
0.4912273
0.9997794
0.9831081
0.9948918
0.9957343
0.844345
0.4464057
0.9999922
0.9999486
1
1
0.9139542
0.889205
0.6280259
0.1885482
0.6018049
0.88068
0.9255836
0.9072524
0.8604323
0.2791113
0.6395714
0.7841999
0.9039071
0.9583982
0.9286017
0.9598255
0.9346718
0.790369
0.919605
0.937213
0.9339656
0.9257621
0.9379873
1
1
0.9477035
0.9706257
0.9602065
0.9597602
0.9995136
0.9588565
0.6455552
0.8843815
0.8818102
0.8840901
0.9458335
0.9183517
0.7857366
0.9275328
0.9999301
1
1
0.9514728
0.9361874
0.9575905
0.9266393
1
1
1
0.9061486
0.8514834
0.901948
0.9917758
0.9701958
0.9765899
0.9997444
0.944806
0.9999985
0.9994897
1
1
0.9999963
0.9999999
0.9999986
0.9907203
0.9959202
0.9815899
0.9983449
0.9983023
0.8757794
0.9987921
0.9081059
0.9215524
0.7332492
0.7616153
0.9189552
0.999935
0.999999
0.9999777
0.9999987
1
1
1
1
1
1
1
1
1
1
1
1
1
0.9184406
0.8217816
0.9748494
0.9947533
0.9939192
0.9999763
0.9972164
0.9999897
0.9997729
0.9992975
0.999835
1
0.9993149
0.9882768
0.9944878
0.9925073
0.7122166
0.9064391
0.7530898
1
0.9999752
0.9999993
0.9987583
0.3274199
1
1
0.9998898
0.9999617
0.1668323
0.9177274
0.8181473
0.9990979
0.9996541
0.9067438
0.9614619
0.9880638
0.970534
0.9967685
0.9999699
0.9999493
0.9701682
0.9681249
0.9134727
0.9089425
0.8859902
0.1710187
0.9997628
0.9634173
0.9999987
0.9990356
0.9944178
0.9999916
0.9993357
0.9999996
0.9973338
0.9997162
1
1
1
1
1
1
1
1
0.124934
0.1321928
0.1320189
0.2241824
0.242568
0.2342657
0.2524965
0.2425918
0.2349509
0.2534841
0.3860663
0.436963
0.6333944
0.9682678
0.9806417
0.9746686
0.9918407
0.9953607
0.6663506
0.8839508
0.9797412
0.9746686
0.9918407
0.9953607
0.6663506
0.8839508
0.9971
0.9865549
0.997753
0.9997603
0.9980795
0.9998731
0.9999927
0.9994405
0.9999106
0.9975174
0.9998371
0.9998738
0.9999934
0.9975827
0.9992719
0.9910093
0.997753
0.9997603
0.9980795
0.6399212
0.205709
0.3940846
0.4232785
0.9172668
0.8150699
0.9952902
0.9991919
0.9998769
0.9992143
0.9977203
0.9777541
0.9767181
0.8425131
0.9161096
0.205709
0.3940846
0.4232785
0.6654549
0.2059902
0.9824871
0.9602434
0.510782
0.9140405
0.398781
0.4698034
0.8760996
0.7253508
0.9824871
0.9602434
0.9986002
0.9983471
0.9999024
0.9997557
0.9999823
0.9999168
0.9995181
0.9987219
0.9999951
0.9999067
0.7566561
0.2595754
0.9993604
0.9945802
0.9986212
0.9963304
0.9996693
0.9987152
0.8981614
0.972258
0.8747043
0.9323625
0.1780796
0.3627616
0.07258414
0.6220465
0.9233286
0.8861711
0.8294475
0.9097102
0.8835311
0.3361178
0.5064855
0.2747458
0.2714742
0.2071652
0.4229092
0.6410958
0.8671385
0.796043
0.366455
0.1560324
0.3266128
0.7174351
0.2451605
0.1354465
0.219033
0.3041357
0.08683956
0.9062396
0.8396224
0.9652437
0.9561236
0.9108968
0.9244868
0.9297329
0.9472566
0.8632958
0.950272
0.929431
0.7664227
0.9126772
0.5785174
0.7135451
0.6762966
0.2415749
0.4492828
0.267799
0.04835363
0.5744491
0.3252931
0.2364338
0.1319406
0.1370091
0.05312654
0.9353077
0.9170418
0.5071521
0.7635539
0.6520665
0.1853216
0.748629
0.3459187
1
0.9994324
0.9996045
0.8703757
0.9063225
0.9984254
0.9989253
0.4039318
0.5708499
0.2172855
0.6261778
1
1
1
1
1
1
1
1
0.9914447
0.9626361
0.9997567
0.99985
0.9998966
0.9914436
0.9967314
0.9293985
0.9123417
0.9986478
0.9991113
0.7422882
0.890966
0.9999993
1
1
1
1
1
1
1
1
0.2598882
0.9700801
0.9879355
0.7977203
0.9175018
0.9374084
0.9578975
0.9786512
0.2804628
0.7744879
0.9986223
0.9999909
1
1
0.9999996
0.9997162
1
1
1
1
1
1
1
0.9999999
0.8208164
0.8169565
0.9179764
0.8969319
0.278187
0.5079003
0.8738438
0.7103692
0.890966
0.9582626
0.8624621
0.976875
0.997579
0.9917212
1
1
1
0.9999996
1
1
1
1
1
1
0.42842
0.3158568
0.9998957
0.99989
0.9999979
0.9999913
1
1
0.9999995
1
1
0.9999998
0.9999994
0.9999452
0.9999936
0.9999344
0.9994183
0.99944
0.9962385
0.6002988
0.8583935
0.8745788
0.1526082
0.4120199
0.9999949
1
0.9999996
0.9999996
0.9999452
0.9999936
0.9999344
0.9994183
0.99944
0.9962385
0.8099679
0.8069409
0.8338232
0.8197174
0.8225583
0.8285371
0.8501835
0.8008889
0.7904395
0.8565999
0.8391056
0.8746786
0.8957621
0.8774352
0.9001258
0.9117622
0.9861205
0.9505208
0.9994691
0.998203
0.9835757
0.9499811
0.8982557
0.9110147
0.8963415
0.8793724
0.8587468
0.8406695
0.891627
0.8223786
0.8290195
0.8529003
0.800768
0.7903862
0.8063038
0.8052447
0.8329782
0.9756163
0.9879928
0.9911377
0.9630856
0.8893564
0.9310285
0.88299
0.9214536
0.9803712
0.9844949
0.256655
0.0752251
0.1772045
0.1772045
0.0752251
1
1
1
1
1
1
1
1
1
1
0.9764904
0.9670819
0.995283
0.99361
0.9147994
0.999999
0.9922534
0.9818336
0.74944
0.8947268
0.7541184
0.2594423
0.728599
0.9764904
0.8800575
0.995283
0.9955847
0.9998262
0.9948918
0.9957343
0.9962541
0.7838857
0.9948918
0.9957343
0.9999922
0.9999486
0.9999997
1
0.9999992
0.9999922
0.9999486
0.9999992
0.9995105
0.9980848
0.9996546
0.2557476
0.7058011
0.2850263
0.2484624
0.2805227
0.6978079
0.2839928
0.4746563
0.3587004
0.9995117
0.9980812
0.9996487
0.9081668
0.8710154
0.8942756
0.8817908
0.6273011
0.1893048
0.9668324
0.5644471
0.6574998
0.1864287
0.2542222
0.898581
0.9207465
0.8920782
0.903625
0.9001368
0.9994652
0.9147675
0.9772231
0.9236826
0.9826497
0.9764908
0.9864
0.9549309
0.9903709
0.9961417
0.9017716
0.8700809
0.9443166
0.8425762
0.9066683
0.7967296
0.5372864
0.213424
0.1696399
0.2303093
0.9039917
0.9002098
0.952718
0.9259196
0.9338416
0.9457591
0.9498787
0.9200357
0.9304892
0.9417275
1
1
0.9911192
0.9869548
0.0795627
0.2603222
0.3849984
0.1978772
0.1521934
0.08740064
0.8744115
0.1246812
0.9492648
0.9196785
0.9297815
0.9413788
0.9026276
0.8979392
0.9097047
0.8922394
0.9184075
0.9423077
0.945448
0.9110144
1
1
1
1
0.9999992
0.9999991
0.7660896
0.7927828
0.8442358
0.9297992
0.9019485
0.8976576
0.9089939
0.8919388
0.9176326
0.9380878
0.9435803
0.9101461
0.9590646
0.9697103
0.9632181
0.975359
0.9380099
0.9478168
0.9271557
0.9590552
1
1
1
1
0.9995233
0.2760331
0.2734392
0.7994104
0.8145203
0.6298679
0.9025458
0.4241106
0.6403403
0.943549
0.9502047
0.9551717
0.9370472
0.9177075
0.8910202
0.9020903
0.9084619
0.9597042
0.9537453
0.9385229
0.969597
0.9778871
0.9923929
0.9906068
0.983875
1
1
0.9945622
0.9514788
0.3825157
0.1752496
0.5315111
0.07375115
0.2673625
0.2457615
0.214605
0.1027687
0.2481477
0.2516491
0.3901442
0.8737537
0.9845438
0.952935
0.9982042
0.9958391
0.986994
0.7371887
0.359646
0.4684643
0.9337526
0.8993147
0.9100818
0.9251975
1
1
0.5814052
0.7189493
0.1746437
0.9976168
0.9999937
0.9999895
0.9995897
0.9998844
0.9809271
0.9875136
0.9931199
1
1
1
1
0.6307432
0.6936313
0.9094811
0.8674907
0.5364876
0.6623874
0.7996309
0.6954685
0.6523189
0.8952479
0.2445942
0.9138135
0.9916534
0.9976651
0.9991719
0.9885282
0.8786225
0.9815574
0.9915526
0.9980831
0.9969499
0.999444
0.9983387
0.9998022
0.9997633
1
1
1
1
1
1
0.1807839
0.1342625
0.240691
0.1296945
0.4135882
0.5310938
0.6101333
0.9998022
0.9999388
0.9907203
0.9815899
0.7618931
0.8673798
0.8673798
0.9820638
0.9215524
0.7332492
0.9189552
0.7616153
0.9591744
0.7987588
0.8896211
0.2070215
0.9391233
0.9402062
0.6584352
0.9019397
0.3095165
0.4053014
0.6095597
0.8254442
0.1757161
0.0695765
0.8320052
0.3979906
0.3292891
0.6849961
0.5071014
0.83956
0.8485664
0.2647333
0.6528036
0.9271063
0.9303402
0.9814201
0.7742853
0.7430555
0.2339766
0.2571641
0.9162798
0.9138938
0.7449337
0.9271063
0.9303402
0.9814201
0.7742853
0.7430555
0.9184405
0.9748494
0.9991965
0.9997174
0.9991965
0.9997174
0.9748494
0.9184406
0.8217817
0.9977533
0.9657837
0.8586906
0.8583936
0.8963671
0.9445567
0.8914277
0.9760528
0.9517598
0.8955994
0.9112696
0.9452288
0.9948969
0.9977422
0.9978472
0.9991184
1
1
1
1
0.8576827
0.8490875
0.8224948
0.8626624
0.8304523
0.8895651
0.9365768
0.8931029
0.9805851
0.9554989
1
0.9694197
0.925819
0.9163499
0.8736858
0.8725001
0.8895323
0.8627011
0.8572604
0.8325385
0.9740691
0.9406491
0.9966781
0.9903461
0.9848704
0.9939849
0.2771253
0.6842453
0.2688116
0.6848721
0.2664923
0.2723774
0.2664923
0.2771253
0.6842453
0.2688116
0.9813934
1
1
1
1
1
1
1
1
1
1
1
1
1
0.9813881
0.9712439
0.9406245
0.9890517
0.9845842
0.9528087
0.9868838
0.9670648
0.4205605
0.1022438
0.4361303
0.2555609
0.9999645
0.9522259
0.1909363
0.08130396
0.07838775
0.9890517
0.9868837
0.9670642
0.9420034
0.7085572
0.8936207
0.9804866
0.319671
0.8464329
0.6491609
0.9269047
0.9812114
0.8936196
0.999999
0.781376
0.7425889
0.910978
0.9342491
0.9485262
0.7066493
0.9065199
0.9997743
0.3916181
0.5111664
0.2552874
0.9030591
0.7190917
0.8858682
0.5700863
0.4745201
0.9997851
0.9997738
0.9989022
0.9997741
0.9467983
0.9750987
0.5202764
0.3702923
0.2599536
0.2899099
0.9999308
0.9999998
0.2252948
0.375516
0.2239676
0.2272742
0.6898744
0.9848937
0.9517041
0.733168
0.994036
0.9939848
0.9736044
0.8488959
0.9828644
0.7844121
0.603319
0.4180546
0.1658992
0.4982076
0.0731278
0.975299
0.9295304
0.9491511
1
1
0.974756
0.7770819
0.6781118
0.9048295
0.5401326
0.444836
0.916131
0.6952582
0.1993883
0.268723
0.2400956
0.2043085
0.6791725
0.0909771
0.9776757
0.9053656
0.9509454
0.8563706
0.5956473
0.1938475
0.5215028
0.6920372
0.60442
0.2827839
0.5548372
0.929306
0.948972
0.9486914
0.920687
1
1
1
1
0.99813
0.9901049
0.9994341
0.9963929
0.999904
0.7519299
0.9589063
0.6797658
0.9846694
0.9902692
0.8910741
0.9796737
0.2164511
0.4918229
0.3473707
0.4688163
0.3881734
0.07505286
0.5193676
0.9969315
0.9092389
0.9037349
0.9452575
0.9199835
0.950403
0.960073
1
1
1
1
0.9998995
0.9963576
0.9975251
0.9860148
0.9885088
0.9915878
0.9637938
0.9576992
0.7389747
0.8714499
0.8864926
0.9618841
0.8767386
0.9333595
0.8636332
0.8616059
0.763387
0.8237898
0.7391179
0.2560328
0.999124
0.956457
0.9452358
0.9039729
0.9201034
0.9931124
0.9850707
0.9906006
1
1
1
1
0.9720301
0.9173008
0.9183289
0.9311285
0.7078793
0.3949269
0.3018642
0.6542643
0.1286596
0.3451951
0.2703419
0.7784472
0.6789659
0.2850568
0.4581198
0.684393
0.8683938
0.7327175
0.999072
0.9999848
0.9104024
0.9333043
0.9822377
0.9865359
0.9710676
1
1
0.7068696
0.3039056
0.4512073
0.1928934
0.5366658
0.6344465
0.7567736
0.7069757
0.9710479
1
1
0.5264623
0.349277
0.6071589
0.8636435
0.9174068
0.7520253
0.943843
0.936363
0.8502053
0.9897833
0.9028721
0.999955
1
1
1
0.9999998
0.9999998
0.3092137
0.3482774
0.2490699
0.9999965
0.999955
0.9999593
0.974859
0.9132173
0.9994527
0.9962333
0.9132173
0.7079449
0.5439679
0.6247744
0.3055472
0.9417847
0.6314539
0.6247744
0.5439679
0.2464181
0.160433
0.07341553
0.1442195
0.08886845
0.446886
0.2213756
0.9463762
0.1277404
0.4168063
0.2900214
0.7210208
0.9863856
0.9951791
0.9989201
0.2975489
0.4706068
0.6037194
0.2059457
0.193278
0.5309584
0.06746416
0.08837487
0.4633524
0.4102028
0.7617101
0.2818084