/*--------------------------------*- C++ -*----------------------------------*\
  =========                 |
  \\      /  F ield         | OpenFOAM: The Open Source CFD Toolbox
   \\    /   O peration     | Website:  https://openfoam.org
    \\  /    A nd           | Version:  8
     \\/     M anipulation  |
\*---------------------------------------------------------------------------*/
FoamFile
{
    version     2.0;
    format      ascii;
    class       volScalarField;
    location    "0";
    object      thickness;
}
// * * * * * * * * * * * * * * * * * * * * * * * * * * * * * * * * * * * * * //

dimensions      [0 0 0 0 0 0 0];

internalField   uniform 0;

boundaryField
{
    boundaries
    {
        type            fixedValue;
        value           nonuniform List<scalar> 0();
    }
    top
    {
        type            fixedValue;
        value           uniform 0;
    }
    cylinder_1
    {
        type            fixedValue;
        value           nonuniform List<scalar> 0();
    }
    cylinder_1_slave
    {
        type            fixedValue;
        value           nonuniform List<scalar> 0();
    }
    geo_100_mL_Wheel
    {
        type            fixedValue;
        value           nonuniform List<scalar> 
27581
(
0
0
0
0
0
0
0
0
0
0
0
0
0
0
0
0
0
0
0
0
0
0
0
0
0
0
0
0
0
0
0
0
0
0
0
0
0
0
0
0
0
0
0
0
0
0
0
0
0
0
0
0
0
0
0
0
0
0
0
0
0
0
0
0
0
0
0
0
0
0
0
0
0
0
0
0
0
0
0
0
0
0
0
0
0
0
0
0
0
0
0
0
0
0
0
0
0
0
0
0
0
0
0
0
0
0
0
0
0
0
0
0
0
0
0
0
0
0
0
0
0
0
0
0
0
0
0
0
0
0
0
0
0
0
0
0
0
0
0
0
0
0
0
0
0
0
0
0
0
0
0
0
0
0
0
0
0
0
0
0
0
0
0
0
0
0
0
0
0
0
0
0
0
0
0
0
0
0
0
0
0
0
0
0
0
0
0
0
0
0
0
0
0
0
0
0
0
0
0
0
0
0
0
0
0
0
0
0
0
0
0
0
0
0
0
0
0
0
0
0
0
0
0
0
0
0
0
0
0
0
0
0
0
0
0
0
0
0
0
0
0
0
0
0
0
0
0
0
0
0
0
0
0
0
0
0
0
0
0
0
0
0
0
0
0
0
0
0
0
0
0
0
0
0
0
0
0
0
0
0
0
0
0
0
0
0
0
0
0
0
0
0
0
0
0
0
0
0
0
0
0
0
0
0
0
0
0
0
0
0
0
0
0
0
0
0
0
0
0
0
0
0
0
0
0
0
0
0
0
0
0
0
0
0
0
0
0
0
0
0
0
0
0
0
0
0
0
0
0
0
0
0
0
0
0
0
0
0
0
0
0
0
0
0
0
0
0
0
0
0
0
0
0
0
0
0
0
0
0
0
0
0
0
0
0
0
0
0
0
0
0
0
0
0
0
0
0
0
0
0
0
0
0
0
0
0
0
0
0
0
0
0
0
0
0
0
0
0
0
0
0
0
0
0
0
0
0
0
0
0
0
0
0
0
0
0
0
0
0
0
0
0
0
0
0
0
0
0
0
0
0
0
0
0
0
0
0
0
0
0
0
0
0
0
0
0
0
0
0
0
0
0
0
0
0
0
0
0
0
0
0
0
0
0
0
0
0
0
0
0
0
0
0
0
0
0
0
0
0
0
0
0
0
0
0
0
0
0
0
0
0
0
0
0
0
0
0
0
0
0
0
0
0
0
0
0
0
0
0
0
0
0
0
0
0
0
0
0
0
0
0
0
0
0
0
0
0
0
0
0
0
0
0
0
0
0
0
0
0
0
0
0
0
0
0
0
0
0
0
0
0
0
0
0
0
0
0
0
0
0
0
0
0
0
0
0
0
0
0
0
0
0
0
0
0
0
0
0
0
0
0
0
0
0
0
0
0
0
0
0
0
0
0
0
0
0
0
0
0
0
0
0
0
0
0
0
0
0
0
0
0
0
0
0
0
0
0
0
0
0
0
0
0
0
0
0
0
0
0
0
0
0
0
0
0
0
0
0
0
0
0
0
0
0
0
0
0
0
0
0
0
0
0
0
0
0
0
0
0
0
0
0
0
0
0
0
0
0
0
0
0
0
0
0
0
0
0
0
0
0
0
0
0
0
0
0
0
0
0
0
0
0
0
0
0
0
0
0
0
0
0
0
0
0
0
0
0
0
0
0
0
0
0
0
0
0
0
0
0
0
0
0
0
0
0
0
0
0
0
0
0
0
0
0
0
0
0
0
0
0
0
0
0
0
0
0
0
0
0
0
0
0
0
0
0
0
0
0
0
0
0
0
0
0
0
0
0
0
0
0
0
0
0
0
0
0
0
0
0
0
0
0
0
0
0
0
0
0
0
0
0
0
0
0
0
0
0
0
0
0
0
0
0
0
0
0
0
0
0
0
0
0
0
0
0
0
0
0
0
0
0
0
0
0
0
0
0
0
0
0
0
0
0
0
0
0
0
0
0
0
0
0
0
0
0
0
0
0
0
0
0
0
0
0
0
0
0
0
0
0
0
0
0
0
0
0
0
0
0
0
0
0
0
0
0
0
0
0
0
0
0
0
0
0
0
0
0
0
0
0
0
0
0
0
0
0
0
0
0
0
0
0
0
0
0
0
0
0
0
0
0
0
0
0
0
0
0
0
0
0
0
0
0
0
0
0
0
0
0
0
0
0
0
0
0
0
0
0
0
0
0
0
0
0
0
0
0
0
0
0
0
0
0
0
0
0
0
0
0
0
0
0
0
0
0
0
0
0
0
0
0
0
0
0
0
0
0
0
0
0
0
0
0
0
0
0
0
0
0
0
0
0
0
0
0
0
0
0
0
0
0
0
0
0
0
0
0
0
0
0
0
0
0
0
0
0
0
0
0
0
0
0
0
0
0
0
0
0
0
0
0
0
0
0
0
0
0
0
0
0
0
0
0
0
0
0
0
0
0
0
0
0
0
0
0
0
0
0
0
0
0
0
0
0
0
0
0
0
0
0
0
0
0
0
0
0
0
0
0
0
0
0
0
0
0
0
0
0
0
0
0
0
0
0
0
0
0
0
0
0
0
0
0
0
0
0
0
0
0
0
0
0
0
0
0
0
0
0
0
0
0
0
0
0
0
0
0
0
0
0
0
0
0
0
0
0
0
0
0
0
0
0
0
0
0
0
0
0
0
0
0
0
0
0
0
0
0
0
0
0
0
0
0
0
0
0
0
0
0
0
0
0
0
0
0
0
0
0
0
0
0
0
0
0
0
0
0
0
0
0
0
0
0
0
0
0
0
0
0
0
0
0
0
0
0
0
0
0
0
0
0
0
0
0
0
0
0
0
0
0
0
0
0
0
0
0
0
0
0
0
0
0
0
0
0
0
0
0
0
0
0
0
0
0
0
0
0
0
0
0
0
0
0
0
0
0
0
0
0
0
0
0
0
0
0
0
0
0
0
0
0
0
0
0
0
0
0
0
0
0
0
0
0
0
0
0
0
0
0
0
0
0
0
0
0
0
0
0
0
0
0
0
0
0
0
0
0
0
0
0
0
0
0
0
0
0
0
0
0
0
0
0
0
0
0
0
0
0
0
0
0
0
0
0
0
0
0
0
0
0
0
0
0
0
0
0
0
0
0
0
0
0
0
0
0
0
0
0
0
0
0
0
0
0
0
0
0
0
0
0
0
0
0
0
0
0
0
0
0
0
0
0
0
0
0
0
0
0
0
0
0
0
0
0
0
0
0
0
0
0
0
0
0
0
0
0
0
0
0
0
0
0
0
0
0
0
0
0
0
0
0
0
0
0
0
0
0
0
0
0
0
0
0
0
0
0
0
0
0
0
0
0
0
0
0
0
0
0
0
0
0
0
0
0
0
0
0
0
0
0
0
0
0
0
0
0
0
0
0
0
0
0
0
0
0
0
0
0
0
0
0
0
0
0
0
0
0
0
0
0
0
0
0
0
0
0
0
0
0
0
0
0
0
0
0
0
0
0
0
0
0
0
0
0
0
0
0
0
0
0
0
0
0
0
0
0
0
0
0
0
0
0
0
0
0
0
0
0
0
0
0
0
0
0
0
0
0
0
0
0
0
0
0
0
0
0
0
0
0
0
0
0
0
0
0
0
0
0
0
0
2.152096e-05
4.448738e-05
0.00019029
0.00011485
0.0001820228
0.000106641
0.0002637324
0.0002064408
0.0002609537
0.0002251048
0.0001214965
0.0001105102
0.0002500766
5.045984e-05
0.0002076106
0.0002079408
0.0002303343
0.0001268443
0.0001800653
6.268832e-05
2.00308e-05
3.988788e-05
0.0002048476
4.607943e-05
2.328569e-05
3.319972e-05
2.26232e-05
0.0002204141
8.786303e-05
0.0001176792
8.900421e-05
2.095537e-05
0.0002482131
0.0002602803
0.0002721268
0.0002605313
0.0001208204
2.728716e-05
2.469044e-05
0.0001250295
0.0002766764
0.0001784848
0.0002259325
0.0002304135
6.498966e-05
0.0001692402
3.043913e-05
4.103392e-05
3.296362e-05
0.0002105938
0.0001421415
0.0002148443
3.133528e-05
0.0001029991
6.647839e-05
4.103061e-05
7.722011e-05
2.674496e-05
0.0002512094
0.0002732162
0.0002504422
2.1272e-05
7.383301e-05
2.00308e-05
9.867277e-05
3.988788e-05
1.600845e-05
6.680822e-05
0.0001180145
0.0001188182
0.0002246892
0.0001747329
0.0001418027
4.745815e-05
0.0002778778
0.00027805
0.0002781596
0.0002781945
0.0002780355
0.0002781836
0.0002781945
0.0002779139
0.0001816298
0.0002778932
0.0002781751
0.0002580014
0.0001095851
0.0002664404
0.000266691
0.0002781692
0.0002762673
6.931635e-05
0.0002781862
0.0002781907
0.0001756396
0.0002735724
0.0002781164
0.0002781026
0.0002499312
0.0002412588
0.0001900668
0.0001249039
0.000186156
6.503695e-05
0.0001337058
0.0002726202
0.0002753162
0.0002781945
0.0002781391
0.0001818014
0.0002781945
0.0002781945
0.0002432445
0.000277568
0.0002749519
0.0002738083
0.0002781945
0.0002781945
0.0002781945
0.0002781945
0.0002781945
6.692834e-05
0.0002115497
0.0002776279
0.0002781936
0.0002781932
0.0002781944
0.0002781945
0.0002781945
0.0002781945
0.0002287382
0.0002781941
0.0002781945
0.0002781945
0.0002781945
0.0002781945
0.0002781945
0.0002220895
0.0002734005
0.0002746515
1.932725e-05
0.0002748455
0.0002576711
0.0001637432
0.0002609747
0.0002769016
0.0002650572
0.0002572754
0.0002781945
0.0002775123
0.0002713837
0.0002781425
0.0002446379
0.0002411727
7.743711e-05
0.0002102042
0.0002779697
0.0002500067
0.0002780483
0.0002744805
0.0002492768
0.0002456788
4.937379e-05
0.0002416654
0.0002781133
0.0002781945
0.0002764442
0.000277433
0.0001119894
0.0002630603
0.0002419574
0.0002781945
0.0002532822
0.0002781107
0.0002781945
0.0002582922
0.0002652657
0.000106257
0.0001476467
0.0002776594
7.042207e-05
0.0002781945
0.0002779566
0.0002774243
0.0002718174
0.0002709295
0.0002539483
0.0002714561
0.0001113732
0.0002762736
0.0002648524
0.0002776103
0.0002781945
0.0002746354
0.0002781725
0.0002781275
0.0002689937
8.992955e-05
8.333275e-05
8.981522e-05
0.000278162
0.0002648804
0.0002500618
0.0002758975
0.0002780783
0.0002769089
0.0001857877
0.0002773302
0.0002781922
0.0002781945
0.0002781945
0.0002781945
0.0002605372
0.0002781945
0.0002753885
0.0002781942
0.0002781943
0.0002781945
0.0002781945
0.000278172
0.0002781751
0.0002781945
0.0002781945
0.0002781695
0.0002781945
0.0001438784
0.000253991
0.0002781945
0.0002427084
9.16549e-05
0.0002781892
0.000278191
0.00026863
0.0002781212
0.0001478795
0.0001753636
0.0002781944
0.0002781945
7.139027e-05
0.0002706701
6.86462e-05
0.0001067543
2.263317e-05
0.0002524366
0.0001919384
0.0001888359
0.0001714241
0.0002777212
0.0002772607
0.0002703103
0.0002768374
0.0002107583
4.651204e-05
0.0002574873
0.0002214172
0.0001387892
0.0002773741
0.0002781945
0.0002256388
7.366993e-05
0.0002485965
0.0002505777
0.0002199407
4.360337e-05
0.0002691625
0.0002744529
0.0002756846
0.0002542555
0.0002776604
0.0002740383
0.0002455522
0.0002384327
7.922229e-05
0.0002488912
0.0002781332
0.0002773339
0.0002719738
0.0002105898
0.0002780645
0.0002780585
0.0002778589
5.144166e-05
0.0002529419
0.0002047078
0.0002680666
0.0002781945
0.000269238
0.0002781945
0.0002020311
0.0002769724
0.0002777809
0.0002781945
0.000204624
0.0002735166
0.0002781945
0.0002781945
0.0002777211
0.0002745038
0.0002781945
0.0002731765
0.0001450238
0.0002766877
0.0002629666
0.0002779817
0.0002757027
0.0002688302
0.0002656473
2.482664e-05
0.0001853996
0.0002767754
6.263786e-05
0.0002498649
0.0001335295
0.0002533261
0.0002780984
0.0002663968
0.0002575813
0.0001877075
0.0002781888
0.0002781572
0.0001771088
0.0002128368
1.46903e-05
0.0001773968
0.000177424
0.0002483253
0.0002484061
4.747832e-05
0.0002566238
0.0002566326
0.0002774642
0.0002768264
0.0002768264
0.0002774642
0.0002781092
0.00027805
0.0002781844
0.0002781944
0.0002491662
0.0002781942
0.0002781881
0.0002781699
0.0002781886
0.0002778778
0.0002781909
0.0002781942
0.0002781944
0.0002781844
0.0002491662
0.0002781092
7.023897e-05
0.0002779139
0.0001821518
0.0002761854
0.0002656013
0.0002684912
0.0002114986
0.0002772669
0.0002781676
0.0002751585
0.0002719524
0.0002761854
0.0001821518
0.0002656013
7.023897e-05
6.931635e-05
0.0002762673
0.0002779475
0.0002705519
8.9424e-05
0.0002636452
0.0002732284
0.0002553915
7.281506e-05
0.0001816298
0.0002779473
0.0002705519
0.0002781184
0.0002781943
0.0002781886
0.0002750073
0.0002763493
0.0002781833
0.0002639374
0.0001866467
0.0002781623
0.0002470243
0.000274965
0.0002781351
0.0001997802
0.000103655
0.0002017337
0.000197464
0.0002708677
7.99272e-05
0.0001751954
0.0002720176
0.0001742852
0.0002177029
0.0001714807
7.473883e-05
0.0002124927
0.000191549
0.0002749689
0.0002716921
0.000231931
3.991976e-05
6.839276e-05
0.0002701873
0.0002781945
0.0002781945
0.0002781671
0.0002064984
0.0001703331
0.0002781945
0.0002781945
0.0002781945
0.0002781945
0.0002781945
0.0002781945
0.0002678851
0.0002771551
0.0002765276
0.0002365865
0.0002779435
0.0002741062
0.0002665261
0.0002528918
0.000263806
0.0002781695
0.0002781945
0.0002781945
0.0002781945
0.0002781945
0.0002781945
0.0002781945
0.0002781945
0.0002781945
0.0002781944
6.847386e-05
0.000275095
0.0001304902
0.0002725368
0.0002781776
0.000278193
0.0002781945
0.0002781643
0.0002781945
0.0002781945
0.0002781945
0.0002781945
0.0002781945
0.0002781944
0.000242088
0.0001851531
0.0002752771
0.0002781538
0.0002684606
0.0002781944
0.0002781945
0.0002781945
0.0002781945
0.0002781945
0.0002781945
0.0002781945
0.0002781931
5.152269e-05
2.3816e-05
0.0002781899
0.0002781945
0.0002781945
0.0002781881
0.0002781945
0.0002781945
0.0002771778
0.0002781945
0.0002781945
0.0002771778
0.0002181667
0.0002447114
0.0002463704
0.0002737704
0.000277979
0.0002779803
0.0002737134
0.0002463239
0.0002450222
0.0002169509
0.0002368649
0.0002350087
6.898969e-05
6.898969e-05
0.0002781945
0.0002781945
0.0002781945
0.0002781945
0.0002781945
0.0002262186
0.0002758537
0.0001212553
0.000277871
0.0002752391
0.0002752391
0.0002780645
0.0002702069
0.000270216
0.0002780645
0.000181064
0.0002487459
5.135462e-05
0.0001714843
0.0002781945
0.0002690091
5.087007e-05
0.0002746451
0.0002161925
0.0002174818
0.0002781945
0.0002781945
0.0002176858
0.0002064388
0.0002781945
0.0002781945
0.0002525989
5.28716e-05
0.0002032854
0.0002781945
0.000271405
0.0002675217
0.0002779833
0.0002525101
4.877787e-05
0.0002781757
0.0002769698
0.0002729705
0.0002252618
6.446227e-05
0.0002219426
0.0002774178
0.000277885
0.0002780685
0.0002781945
0.0001226167
0.0002780685
0.0002780505
0.0001804878
0.0001804878
0.0002779574
0.000263878
0.0002781926
1.949006e-05
8.227569e-05
0.0002606628
0.0002779574
0.000263878
0.0002781877
0.0001079317
0.0001084568
6.748776e-05
0.000245988
7.05829e-05
0.0002781774
0.0002732194
7.615476e-05
0.0002732194
7.615476e-05
0.000277738
0.000277738
0.0002555988
0.0002769587
0.0002781945
0.0002488905
0.0002742246
0.0002780483
0.0002511553
0.0002240831
0.0002467279
4.937379e-05
0.0002781945
0.0002781945
0.0002781945
0.0002781945
0.0002052927
6.277276e-05
0.0001968843
0.0002766275
0.0001887297
0.0001886526
0.0002727319
0.0002704344
0.0001847374
8.705872e-05
0.0001042207
5.277711e-05
0.0001325143
0.0001573139
9.767834e-05
0.0002770663
0.0001410896
0.0002395514
0.00027769
0.000252862
0.0002687913
0.000213738
0.0002101138
8.85711e-05
0.0001160933
0.0002781945
0.0002719961
0.0001334547
0.0002529191
9.141362e-05
0.000205934
0.0002542278
0.0002600074
0.000223234
9.267044e-05
7.558411e-05
0.0001958779
0.0002781945
0.0002781945
0.0002732888
0.0002779276
0.0002581171
7.322949e-05
0.000277036
0.0002694001
7.064513e-05
0.0002356767
0.0002685816
0.0002765721
0.0002445994
2.170107e-05
0.0002744253
0.0002055022
0.0001732255
7.877523e-05
0.0001037854
0.0002781945
0.0002781945
0.0002779715
0.0002679188
0.0002774021
0.0002745883
0.0002463817
0.0001759889
0.0002739859
0.0002776048
0.0001810232
0.0002559705
0.0002769542
0.0002518578
0.0002666742
0.0002206985
0.0002461193
0.0001974236
0.000215197
0.0002109663
0.0001968561
0.0001298956
0.0002781945
0.0002730573
0.0002597846
0.0002190868
6.447587e-05
0.0002126472
0.0001400893
6.910012e-05
0.0002220746
1.990228e-05
0.0002492031
0.0002557476
4.864896e-05
4.88211e-05
0.0002414275
0.0001308374
2.097946e-05
0.0001204621
0.000186693
0.0002382081
7.753009e-05
0.0002781522
0.0001031923
0.000175183
7.92814e-05
5.873418e-05
6.790341e-05
7.287583e-05
0.0002199254
2.58791e-05
0.0002539093
0.000246241
0.0002776187
0.0001015937
0.0001061393
0.0001265922
0.0001191959
0.0001818921
0.0001909073
0.0002041785
0.000277631
0.0002780931
0.0002781945
0.0002780931
0.000134629
0.0002147211
0.000134629
0.000214721
0.000249653
0.0002636142
7.251883e-05
0.0002665611
5.218868e-05
0.0002124856
0.000249653
0.0002636142
0.0002760953
0.0002476084
5.623179e-05
7.539445e-05
0.000276176
0.0001962348
0.0001962348
0.0002778488
0.0002778488
0.0001113733
0.0002597503
0.0002753568
0.0002781945
7.67418e-05
0.0001319525
5.001484e-05
0.0002252979
9.750558e-05
6.776959e-05
6.680205e-05
0.0002156107
0.0002731062
0.0002781655
0.0001784489
0.0002731062
0.0002781655
0.0002505967
0.0002779567
0.0002505968
0.0002779575
6.754341e-05
4.738359e-05
0.0002653056
6.047581e-05
0.0002771417
0.000219534
8.260822e-05
5.227237e-05
0.0002781686
0.0002769847
9.266015e-05
0.0002781945
0.0002781945
0.0002781942
0.0002781921
0.0002781945
0.0001828259
0.0002781921
0.0002781945
0.0002781661
0.0002781945
0.000278167
0.0002781945
2.940776e-05
0.0002071776
3.509086e-05
0.0002496696
0.0002762553
6.210234e-05
0.0001805312
0.0002174394
0.0002353784
4.777461e-05
0.0002332533
0.0002781945
0.0002781921
0.0002781945
0.0002781921
0.0002781945
0.000278167
0.0002781945
0.000278167
1.587572e-05
0.0001703997
0.0002661194
5.454128e-05
0.0002370809
0.0002191518
0.0001333884
0.0002157072
0.0001617397
0.0002716901
0.0001834403
2.393135e-05
0.0002211325
0.0002781655
0.0002731062
0.0002781655
0.0002731062
0.0002779574
0.0002505968
0.0002779575
0.0002505968
0.0002261713
0.000257055
0.0002578744
0.0002753269
0.0002778347
0.0002780487
0.0002743446
0.0002506247
0.0002498005
0.0002253846
0.0002479662
0.000247259
5.16428e-05
5.16539e-05
3.99417e-05
0.0002548643
0.0002781712
0.0002399186
0.0002690517
0.0002630256
0.0001559408
0.0002699489
0.0002766275
0.0001887303
0.0001887297
0.000277433
0.0002756222
0.0002727309
0.000277433
0.0002700967
0.0002528814
0.000211385
0.000228666
5.25719e-05
0.000211546
0.0002768773
0.0001838746
0.0001318302
0.0001015389
0.0002600316
0.0001081062
0.0001368199
0.0002781935
0.0002345736
0.0002743132
0.000173779
0.0001770852
0.0001710959
0.0002216351
0.000169695
0.0001035935
8.057139e-05
3.178729e-05
0.0001616761
0.0002156219
0.0002781945
0.0001979644
2.106026e-05
6.013549e-05
0.0002217197
0.0001638615
0.0002738912
2.331274e-05
0.0002749792
0.0002524622
0.0001058869
0.000248969
0.0002634952
0.0002722321
0.0002781945
0.0002781945
6.36127e-05
1.952442e-05
0.0002754347
9.2551e-05
0.000259655
0.0002697791
0.0002557207
0.0001998805
0.0002747126
0.0002183642
0.0002766272
0.0002778777
0.0002781945
0.0002781945
0.0002599336
7.054219e-05
0.0002352433
5.700967e-05
0.0002504549
6.191887e-05
5.455062e-05
8.149539e-05
2.167843e-05
0.0002738662
9.054818e-05
0.0002710271
0.0002781945
0.0001789189
0.0002285073
0.0002560834
0.0001332363
0.0002124295
0.0001966993
0.0001741192
0.0001246951
0.0001813593
0.0002781945
0.0002776344
0.0002159103
3.641918e-05
0.0002557512
0.000237068
0.0002757882
0.0002781945
0.0002780931
0.000153741
8.826732e-05
0.0002781945
0.0002780931
0.0002147195
0.000134629
0.000134629
0.0002636142
0.000249653
0.0002781943
0.0002781945
0.0002781945
0.0002781943
0.0002636142
0.000249653
0.0002763115
0.0002781945
0.0002781945
0.0002763115
0.0001962348
0.0001962348
0.0001113733
0.0002778488
0.0002778488
0.0002612803
0.0002780706
0.0002755133
0.000253849
0.0002747527
0.0002779796
0.0002476328
0.0002191353
0.0002375866
0.0002465632
0.0002612709
7.924156e-05
0.0002103673
2.319371e-05
0.0002780448
0.0002558518
0.0002751805
0.0002781893
0.000277871
0.0002752329
0.0002752391
0.0002780645
0.0002603623
0.0002702028
0.0002228664
6.1877e-05
0.0002403499
0.0002467265
3.789928e-05
7.471286e-05
0.0002105566
1.499281e-05
0.0002781925
8.115182e-05
0.0002781945
0.0002747808
0.0002165809
0.0002781945
0.0002015298
0.0002781945
0.0001154908
0.0001753222
0.0002651179
0.0001252261
0.0002709598
4.649985e-05
9.27922e-05
0.0002694317
0.0002774202
0.0002748806
0.0002780685
0.0001595681
0.0002780685
0.0001804878
0.0002780505
0.0001804878
0.000263878
0.0002779574
0.0002781926
0.0002781945
0.0002778742
0.000263878
0.0002779574
0.0002781877
0.0002781945
0.0002781877
7.615476e-05
0.0002732194
7.615476e-05
0.0002732194
0.000277738
0.000277738
0.0001450238
0.0002554567
0.0002642471
0.0002764973
0.0002778185
0.0002776749
0.0002355966
0.0002776749
0.0002778185
0.000278112
0.0002781403
0.0002781861
0.0002781945
0.0002781075
0.0002781945
0.000278192
0.0002781701
0.0002194813
0.0001091881
0.0002781943
0.0002781075
0.0002781944
0.0002781945
0.0002688302
0.0002781403
0.0002781945
0.0002781861
0.000278112
7.023893e-05
0.000277914
0.0001821518
0.0002761854
0.0002781272
0.0002761659
0.0002040624
0.0002420742
0.0001737502
0.0002781937
0.0002781945
0.0002781939
0.0002781804
0.0002656473
0.000277914
0.0002761854
0.0001821518
7.023898e-05
6.93163e-05
0.0002705483
0.0001816297
0.0002762674
0.0002779475
0.0001998269
0.0002740932
0.0001544222
0.0002718988
5.290534e-05
6.696208e-05
0.0001852547
0.0002781921
0.0002781867
0.0002780647
0.0002628729
0.0002705519
0.0002762673
0.0001816298
0.000277946
6.931636e-05
0.0002781163
0.0002667162
0.0002781792
0.0002779448
0.0002535441
0.0002724525
0.000277863
0.000277435
0.000246676
0.0002744664
0.0002435099
0.0002777806
0.0002044169
0.0002492957
0.0002057032
0.0002749995
0.0002683547
0.0002781203
0.0002541926
0.0002781118
0.0002094812
0.0001246926
0.0001929891
0.000278141
0.0002780533
0.0002335326
0.0002627884
0.000277407
0.0002394434
4.23286e-05
4.14508e-05
0.0001788677
0.0001054206
0.0002541131
4.075598e-05
0.0002472818
2.639218e-05
0.0002065569
0.0001563116
0.0002134699
0.0001117952
0.000212741
0.0002525971
0.0001612493
5.802439e-05
0.0002713434
0.0002778173
0.0002781659
0.0002781795
0.000262907
0.000278049
0.0002585452
0.0001890558
0.0002339601
0.0002194408
0.0002113586
0.0002777412
0.0002718066
0.000278113
0.0002769201
0.0002781928
0.0002781944
0.0002781695
0.0002781882
0.0002781945
0.0002781945
0.0002478822
0.00013601
0.000277005
0.0002449492
0.0002516299
0.0002112597
0.0002200714
7.459542e-05
0.0002705127
0.0002476008
0.0002771493
0.0002781944
0.0002781945
0.0002781945
0.0002781643
0.0002781945
0.0002781945
0.0002781945
0.0002781945
0.0002781945
0.0002781868
0.0002540342
0.0002634912
0.0002779602
0.0002732231
0.0001094323
0.0002769822
7.779087e-05
0.0002487993
0.0002772216
0.0002781945
0.0002781945
0.0002781945
0.0002781945
0.0002781945
0.0002781945
0.0002781945
0.0002781931
0.0002781945
0.0002781831
0.0002781945
0.000278166
0.0002780194
0.0002781931
0.0002781566
0.0002781945
0.0002781945
0.0002781888
0.0002781945
0.0002781945
0.0002771778
0.0002781945
0.0002781945
0.0002781945
0.0002781945
0.0002771778
0.0002781945
0.0002781945
0.0001777529
0.000189309
0.0002480187
0.0002543662
4.031684e-05
4.637081e-05
6.228747e-05
0.0001073814
0.0001213271
0.0001760893
0.0002693668
0.0002775221
0.000277992
0.0002756934
0.0002775039
0.0002781492
0.0002773878
0.0002717176
0.0002343825
0.0002548567
0.0002781612
0.0002781868
0.0002755803
0.0002776993
0.0002773375
0.0002781063
0.0002781945
0.0002750576
0.0002781558
0.0001780226
0.0002437261
0.0002017886
0.0002727881
0.0002781841
0.0002744209
0.0002556324
0.0002480991
0.0002780028
0.0001843214
0.0002730182
0.0002752883
0.0002678905
0.0002159315
0.0002778042
0.0002777346
0.0002781593
0.0002777322
0.0002726349
0.0002718511
0.0002607767
0.0002701794
0.0002717452
0.0001668505
0.0002425783
0.0001908687
0.0002691113
0.0002774052
0.0002781945
0.0002781945
0.0002781235
0.0002777802
0.0002611616
7.137337e-05
0.000212708
0.0002781945
0.0002781945
0.0002781945
0.0002781945
0.0002781945
0.0002781945
0.0002781945
0.0002432301
0.0001847415
0.0002771182
0.0002770475
0.0002781903
0.0002709732
0.0002781826
0.0002781591
0.0002772117
0.0002781945
0.0002781945
0.0002579059
6.605786e-05
0.000173524
0.0002781945
0.0002781945
0.0002781945
0.0002781945
0.0002781945
0.0002781945
0.0002781945
0.0002781945
0.0002781945
0.0002781945
0.0002425849
0.0001272253
0.0001802809
0.0001909836
0.0002779023
0.0002781945
0.0002781945
0.0002781945
0.0002781945
0.0002781945
0.0002781866
0.0002781944
0.0002781931
0.0002781945
0.0002781944
0.0002781944
0.0002781945
0.0002781944
0.0002781943
7.140001e-05
0.0002289664
0.0002220895
0.0002289664
0.000278086
0.0002734005
0.000278086
0.0002004172
8.132485e-05
0.0002406077
0.0001899223
0.0001974937
0.0002539646
3.081278e-05
0.0001727815
0.0001435752
0.0001613582
9.674621e-05
0.0002781945
0.000250258
0.0002781945
0.0002781892
0.0002132418
0.0002780474
0.0002769795
0.0001965083
0.0002732048
0.0002155835
0.0002311879
0.0001834801
0.0001892081
6.924436e-05
6.694534e-05
0.0001269043
0.0001837935
0.000211691
0.0001297837
0.0001059456
8.659627e-05
0.0002550716
0.0002430727
0.0002427414
0.0002686031
0.0002561644
0.0002781945
0.0002734582
0.0002666693
0.0002604141
0.0002484731
0.0002361975
0.0002287905
0.0002756116
0.0002706706
0.0002755386
0.0002697312
0.0002600775
7.57739e-05
0.0001905277
0.0002685148
0.0002074797
0.0002416654
0.0002685148
0.0002781212
0.0002751035
0.0002781939
0.0002781133
0.0002781212
0.00025786
0.0002707225
0.0002729677
0.0001971164
0.0002190715
0.000196793
8.48084e-05
0.000217063
0.0002062984
0.0002781346
0.0002781311
0.0002778877
0.0001981878
0.0002285214
0.0002781756
0.000235152
0.0001882672
6.971298e-05
3.073743e-05
0.0002570184
0.0002598122
0.0002649638
0.0002713422
0.0002529975
0.0002514738
0.0002641805
0.0002681507
0.0002777652
0.0002774108
0.0002737085
0.000270225
0.0002711383
0.0002780522
0.0002779587
0.0002685151
0.0002720323
0.0002779927
0.0002661267
0.0002703315
0.0002781706
0.0002781945
0.0002742957
0.0002781945
0.0002744916
0.0002217721
0.000277356
0.000273873
0.0002781936
0.0002781892
7.389471e-05
0.0002781938
0.0002770829
0.0002720832
0.0002781487
0.0002741895
0.0002712004
0.000175667
0.000262009
0.0002578155
0.0001935309
0.0001701451
5.795007e-05
9.800484e-05
0.0001199646
0.0002646855
0.0001196999
0.0001004924
0.0002177582
0.0002778604
0.0002777659
0.0001839206
0.0001843161
0.000245624
9.041894e-05
5.78844e-05
0.0002541422
0.0002444957
6.778927e-05
0.0002727028
0.0002542125
0.0002271397
0.0002185935
7.193072e-05
0.0002577649
0.0002611868
0.0002625894
0.0002697848
0.0002781901
0.0002779529
0.0002781334
0.0002480448
0.0002701574
0.0002781945
0.0002517513
0.0002781725
0.0002781945
0.0002636677
0.0001309061
0.0002781814
0.0001927774
1.815923e-05
0.000151502
0.0001622842
0.0001150252
2.015443e-05
0.000278027
0.0002647582
0.0002781467
0.0002615676
0.0002556889
0.0002704729
0.0001338917
5.390777e-05
0.0002778643
0.0002382713
0.0002386292
0.0002766249
5.218536e-05
0.0001195013
0.0002781661
0.0002781922
0.0002781945
0.0002781945
0.0002781945
0.0002781914
0.0002771912
8.792161e-05
0.0002125142
0.0002781945
0.0002781945
0.0002526098
0.00027816
5.753796e-05
0.00027816
0.0002779005
0.0002781943
0.0002781624
0.0002781945
0.0002781944
0.0002781945
0.0002781945
0.0002781945
0.0002770544
0.0002781945
0.0001951004
7.97944e-05
0.0002781945
0.0002781843
7.524249e-05
7.555359e-05
0.0002781945
0.0002781944
0.0002781945
6.013425e-05
0.0002390121
0.0002781945
0.0002781929
0.0002781387
0.0002781945
0.0002781945
0.0002781945
0.00027816
0.0002278025
0.0002765529
0.0002039803
0.0002781945
0.0002781945
0.0002779427
0.000276556
0.0002781725
0.0002216751
0.0002733455
5.105389e-05
4.91448e-05
0.0002781945
0.0002781725
0.0002710918
0.0002760554
9.17407e-05
4.796741e-05
0.0002771261
8.47191e-05
0.0002781945
0.0002781945
8.310359e-05
0.0002779383
0.0002556889
0.000277902
0.0002781943
0.0002779964
0.0002781945
0.0002781945
0.0002779455
0.0001903696
7.479527e-05
0.0002498174
0.0002686298
0.0002498114
0.000278128
0.0002781212
0.000278128
0.0002757463
0.0002741377
0.0002781281
0.0002777149
0.0002633271
0.0002579949
0.0002714012
0.0001001543
0.000256806
0.0002567083
5.726199e-05
5.216173e-05
0.0001348848
2.670898e-05
5.20783e-05
0.0002289823
0.0002772563
0.0002770379
7.337628e-05
0.0002567039
0.0002315916
0.0002738145
6.291719e-05
6.853125e-05
0.0002779291
0.0002712114
0.000268753
0.0002724334
0.0002714984
0.0002781617
0.0002779102
0.000277925
0.0001258795
1.666072e-05
0.0002779553
0.0002769791
2.478494e-05
2.513129e-05
0.0001915505
0.0001167722
6.892837e-05
0.0001750725
6.170172e-05
9.18905e-05
0.0002153628
0.0002491296
0.000270652
0.0002504863
0.0002201076
0.0002270554
0.000204492
0.0002781945
0.0002781486
0.0002781945
0.0002501412
0.0002405065
0.0002521607
0.0002600187
0.0002571313
0.0002778278
0.000265302
0.0002746806
0.0002449129
0.0002501431
0.0002289297
0.000231076
0.0002231999
0.0002373849
0.0002718767
0.0002764382
0.0002693575
0.0002770399
0.0002612043
0.0002485303
0.0001044282
0.0002598417
0.0002488839
0.0002598413
0.0002734953
0.0002781923
0.0002781878
0.0002753073
0.0002750435
0.0002667408
0.0001306853
0.0001117103
0.0002040613
0.0001131995
8.729122e-05
0.0002005484
0.0001366567
0.0002781332
0.0002734953
0.0002767735
0.0002770078
0.0002348921
0.0001241876
0.0002781924
0.0002781802
0.0002781945
0.0002781945
0.0002542571
0.000247372
0.0001747134
5.245309e-05
0.0001674188
0.0002450003
0.0002574923
0.0002523927
0.0002393676
7.764725e-05
0.0001779253
0.0002181601
0.000251462
0.0002666211
0.0002583319
0.0002670182
0.0002600206
0.0002198763
0.0002558291
0.0002607275
0.0002598241
0.000257542
0.0002609429
0.0002781945
0.0002781945
0.0002636459
0.0002700228
0.0002671242
0.000267
0.0002780592
0.0002667486
0.0001795899
0.0002460301
0.0002453148
0.000245949
0.0002631257
0.0002554804
0.0002185876
0.0002580346
0.0002781751
0.0002781945
0.0002781945
0.0002646945
0.0002604422
0.0002663964
0.000257786
0.0002781945
0.0002781945
0.0002781945
0.0002520856
0.000236878
0.000250917
0.0002759066
0.0002699032
0.000271682
0.0002781234
0.0002628399
0.0002781941
0.0002780526
0.0002781945
0.0002781945
0.0002781935
0.0002781945
0.0002781941
0.000275613
0.0002770595
0.0002730729
0.0002777341
0.0002777222
0.000243637
0.0002778585
0.0002526301
0.0002563708
0.0002039859
0.0002118772
0.0002556483
0.0002781765
0.0002781943
0.0002781883
0.0002781942
0.0002781945
0.0002781945
0.0002781945
0.0002781945
0.0002781945
0.0002781945
0.0002781945
0.0002781945
0.0002781945
0.0002781945
0.0002781945
0.0002781945
0.0002781945
0.0002555051
0.0002286152
0.0002711978
0.0002767349
0.0002765029
0.0002781879
0.0002774201
0.0002781917
0.0002781314
0.0002779991
0.0002781486
0.0002781945
0.0002780039
0.0002749332
0.0002766611
0.0002761101
0.0001981348
0.0002521664
0.0002095055
0.0002781945
0.0002781876
0.0002781943
0.0002778491
9.108643e-05
0.0002781945
0.0002781945
0.0002781639
0.0002781839
4.641182e-05
0.0002553067
0.0002276041
0.0002779436
0.0002780983
0.0002522512
0.0002674735
0.0002748739
0.0002699972
0.0002772955
0.0002781862
0.0002781804
0.0002698955
0.0002693271
0.0002541231
0.0002528628
0.0002464776
4.757646e-05
0.0002781285
0.0002680174
0.0002781942
0.0002779262
0.0002766416
0.0002781922
0.0002780097
0.0002781944
0.0002774528
0.0002781156
0.0002781945
0.0002781945
0.0002781945
0.0002781945
0.0002781945
0.0002781945
0.0002781945
0.0002781945
3.475595e-05
3.677532e-05
3.672695e-05
6.236633e-05
6.748108e-05
6.517144e-05
7.024316e-05
6.748772e-05
6.536206e-05
7.051789e-05
0.0001074015
0.0001215607
0.0001762069
0.0002693668
0.0002728092
0.0002711475
0.0002759247
0.0002769039
0.0001853751
0.0002459103
0.0002725586
0.0002711475
0.0002759247
0.0002769039
0.0001853751
0.0002459103
0.0002773878
0.0002744542
0.0002775694
0.0002781278
0.0002776603
0.0002781592
0.0002781925
0.0002780389
0.0002781697
0.0002775039
0.0002781492
0.0002781594
0.0002781927
0.0002775221
0.000277992
0.0002756934
0.0002775694
0.0002781278
0.0002776603
0.0001780226
5.722713e-05
0.0001096322
0.0001177538
0.0002551786
0.000226748
0.0002768843
0.0002779697
0.0002781603
0.000277976
0.0002775603
0.0002720058
0.0002717176
0.0002343825
0.0002548567
5.722713e-05
0.0001096322
0.0001177538
0.0001851259
5.730534e-05
0.0002733225
0.0002671345
0.0001420967
0.0002542811
0.0001109387
0.0001306967
0.0002437261
0.0002017886
0.0002733225
0.0002671345
0.0002778051
0.0002777347
0.0002781674
0.0002781266
0.0002781896
0.0002781714
0.0002780605
0.000277839
0.0002781932
0.0002781686
0.0002104976
7.221245e-05
0.0002780166
0.0002766868
0.000277811
0.0002771737
0.0002781025
0.0002778371
0.0002498636
0.0002704769
0.0002433379
0.0002593781
4.954076e-05
0.0001009183
2.019251e-05
0.0001730499
0.000256865
0.000246528
0.0002307478
0.0002530764
0.0002457935
9.350615e-05
0.0001409015
7.643278e-05
7.552263e-05
5.763222e-05
0.000117651
0.0001783494
0.0002412332
0.0002214548
0.0001019458
4.340736e-05
9.08619e-05
0.0001995865
6.820231e-05
3.768049e-05
6.093379e-05
8.460888e-05
2.415829e-05
0.0002521109
0.0002335784
0.0002685255
0.0002659883
0.0002534065
0.0002571872