# Probe 0 (0 0 0)
# Probe 1 (0 0.011 0)
# Time         0              1             
0              0              0             
1.199999e-06   8.754396e-05   8.754396e-05  
2.639996e-06   8.754368e-05   8.754368e-05  
4.367991e-06   8.754333e-05   8.754333e-05  
6.441582e-06   8.754288e-05   8.754288e-05  
8.92989e-06    8.754235e-05   8.754235e-05  
1.191586e-05   8.75417e-05    8.75417e-05   
1.549901e-05   8.754093e-05   8.754093e-05  
1.97988e-05    8.754e-05      8.754e-05     
2.495853e-05   8.753888e-05   8.753888e-05  
3.115017e-05   8.753754e-05   8.753754e-05  
3.858013e-05   8.753594e-05   8.753594e-05  
4.749602e-05   8.753401e-05   8.753401e-05  
5.819505e-05   8.753169e-05   8.753169e-05  
7.103374e-05   8.752892e-05   8.752892e-05  
8.644002e-05   8.752559e-05   8.752559e-05  
0.0001049275   8.752159e-05   8.752159e-05  
0.0001271124   8.751679e-05   8.751679e-05  
0.0001537338   8.751104e-05   8.751104e-05  
0.0001856788   8.750413e-05   8.750413e-05  
0.0002240123   8.749584e-05   8.749584e-05  
0.0002700107   8.74859e-05    8.74859e-05   
0.0003252078   8.747398e-05   8.747398e-05  
0.0003914421   8.745967e-05   8.745967e-05  
0.0004709212   8.744251e-05   8.744251e-05  
0.0005662961   8.742193e-05   8.742193e-05  
0.0006807395   8.739724e-05   8.739724e-05  
0.0008180652   8.736764e-05   8.736764e-05  
0.000982838    8.733214e-05   8.733214e-05  
0.001176559    8.729044e-05   8.729044e-05  
0.001400359    8.724231e-05   8.724231e-05  
0.00165556     8.71875e-05    8.71875e-05   
0.001943267    8.712577e-05   8.712577e-05  
0.002264392    8.705698e-05   8.705698e-05  
0.002605149    8.698409e-05   8.698409e-05  
0.002947191    8.691105e-05   8.691105e-05  
0.003290175    8.683791e-05   8.683791e-05  
0.003633986    8.676472e-05   8.676472e-05  
0.003978392    8.669152e-05   8.669152e-05  
0.004323394    8.661832e-05   8.661832e-05  
0.004668995    8.65451e-05    8.65451e-05   
0.005015197    8.647187e-05   8.647187e-05  
0.005362124    8.639861e-05   8.639861e-05  
0.005709656    8.632533e-05   8.632533e-05  
0.006057919    8.625203e-05   8.625203e-05  
0.006406916    8.617868e-05   8.617868e-05  
0.006756772    8.610528e-05   8.610528e-05  
0.007107494    8.603181e-05   8.603181e-05  
0.007459085    8.595828e-05   8.595828e-05  
0.007811675    8.588466e-05   8.588466e-05  
0.00816527     8.581095e-05   8.581095e-05  
0.00851975     8.573718e-05   8.573718e-05  
0.008875247    8.566331e-05   8.566331e-05  
0.009231766    8.558936e-05   8.558936e-05  
0.009589315    8.551532e-05   8.551532e-05  
0.0099479      8.544118e-05   8.544118e-05  
0.01030753     8.536695e-05   8.536695e-05  
0.0106682      8.529263e-05   8.529263e-05  
0.01102993     8.521822e-05   8.521822e-05  
0.01139286     8.514368e-05   8.514368e-05  
0.01175685     8.506905e-05   8.506905e-05  
0.01212205     8.49943e-05    8.49943e-05   
0.01248848     8.491942e-05   8.491942e-05  
0.01285599     8.484445e-05   8.484445e-05  
0.01322461     8.476938e-05   8.476938e-05  
0.01359446     8.469419e-05   8.469419e-05  
0.01396543     8.461889e-05   8.461889e-05  
0.01433752     8.45435e-05    8.45435e-05   
0.01471073     8.446801e-05   8.446801e-05  
0.01508508     8.439242e-05   8.439242e-05  
0.01546058     8.431673e-05   8.431673e-05  
0.01583722     8.424094e-05   8.424094e-05  
0.01621501     8.416505e-05   8.416505e-05  
0.01659398     8.408906e-05   8.408906e-05  
0.01697396     8.401299e-05   8.401299e-05  
0.01735498     8.393685e-05   8.393685e-05  
0.01773704     8.386063e-05   8.386063e-05  
0.01812013     8.378434e-05   8.378434e-05  
0.01850428     8.370798e-05   8.370798e-05  
0.01888948     8.363154e-05   8.363154e-05  
0.01927575     8.355502e-05   8.355502e-05  
0.01966308     8.347843e-05   8.347843e-05  
0.02005148     8.340176e-05   8.340176e-05  
0.02044082     8.332505e-05   8.332505e-05  
0.02083123     8.324825e-05   8.324825e-05  
0.02122259     8.317141e-05   8.317141e-05  
0.02161504     8.30945e-05    8.30945e-05   
0.02200844     8.301753e-05   8.301753e-05  
0.02240279     8.294052e-05   8.294052e-05  
0.0227981      8.286345e-05   8.286345e-05  
0.02319437     8.278634e-05   8.278634e-05  
0.02359161     8.270918e-05   8.270918e-05  
0.02398982     8.263197e-05   8.263197e-05  
0.024389       8.255471e-05   8.255471e-05  
0.02478917     8.247741e-05   8.247741e-05  
0.02519016     8.240008e-05   8.240008e-05  
0.02559215     8.23227e-05    8.23227e-05   
0.02599496     8.22453e-05    8.22453e-05   
0.02639878     8.216786e-05   8.216786e-05  
0.02680343     8.209039e-05   8.209039e-05  
0.0272091      8.201287e-05   8.201287e-05  
0.02761562     8.193534e-05   8.193534e-05  
0.02802298     8.185778e-05   8.185778e-05  
0.0284312      8.17802e-05    8.17802e-05   
0.02884029     8.17026e-05    8.17026e-05   
0.02925023     8.162499e-05   8.162499e-05  
0.02966104     8.154735e-05   8.154735e-05  
0.03007255     8.146972e-05   8.146972e-05  
0.03048494     8.139208e-05   8.139208e-05  
0.0308982      8.131441e-05   8.131441e-05  
0.03131217     8.123675e-05   8.123675e-05  
0.03172703     8.115908e-05   8.115908e-05  
0.03214259     8.108141e-05   8.108141e-05  
0.03255888     8.100376e-05   8.100376e-05  
0.03297606     8.092608e-05   8.092608e-05  
0.03339396     8.084842e-05   8.084842e-05  
0.03381258     8.077076e-05   8.077076e-05  
0.03423193     8.069312e-05   8.069312e-05  
0.03465202     8.061549e-05   8.061549e-05  
0.03507283     8.053787e-05   8.053787e-05  
0.03549438     8.046026e-05   8.046026e-05  
0.03591667     8.038266e-05   8.038266e-05  
0.0363397      8.030507e-05   8.030507e-05  
0.03676347     8.02275e-05    8.02275e-05   
0.03718799     8.014993e-05   8.014993e-05  
0.03761307     8.00724e-05    8.00724e-05   
0.03803891     7.999489e-05   7.999489e-05  
0.0384655      7.991739e-05   7.991739e-05  
0.03889285     7.98399e-05    7.98399e-05   
0.03932077     7.976245e-05   7.976245e-05  
0.03974945     7.968501e-05   7.968501e-05  
0.0401789      7.960758e-05   7.960758e-05  
0.04060893     7.953019e-05   7.953019e-05  
0.04103973     7.945281e-05   7.945281e-05  
0.04147111     7.937548e-05   7.937548e-05  
0.04190307     7.929819e-05   7.929819e-05  
0.04233582     7.922091e-05   7.922091e-05  
0.04276915     7.914367e-05   7.914367e-05  
0.04320307     7.906648e-05   7.906648e-05  
0.04363758     7.898933e-05   7.898933e-05  
0.04407269     7.891222e-05   7.891222e-05  
0.04450859     7.883512e-05   7.883512e-05  
0.04494509     7.875807e-05   7.875807e-05  
0.04538218     7.868105e-05   7.868105e-05  
0.04581988     7.860408e-05   7.860408e-05  
0.04625818     7.852716e-05   7.852716e-05  
0.04669709     7.845027e-05   7.845027e-05  
0.0471366      7.837343e-05   7.837343e-05  
0.04757672     7.829663e-05   7.829663e-05  
0.04801745     7.821987e-05   7.821987e-05  
0.0484588      7.814316e-05   7.814316e-05  
0.04890076     7.806649e-05   7.806649e-05  
0.04934334     7.798986e-05   7.798986e-05  
0.04978653     7.791327e-05   7.791327e-05  
0.05023035     7.783672e-05   7.783672e-05  
0.05067479     7.776022e-05   7.776022e-05  
0.05111986     7.768375e-05   7.768375e-05  
0.05156534     7.760737e-05   7.760737e-05  
0.05201145     7.753102e-05   7.753102e-05  
0.0524582      7.745472e-05   7.745472e-05  
0.05290557     7.737846e-05   7.737846e-05  
0.05335337     7.730228e-05   7.730228e-05  
0.05380181     7.722613e-05   7.722613e-05  
0.05425067     7.715007e-05   7.715007e-05  
0.05470017     7.707404e-05   7.707404e-05  
0.0551501      7.699809e-05   7.699809e-05  
0.05560067     7.692218e-05   7.692218e-05  
0.05605167     7.684635e-05   7.684635e-05  
0.05650332     7.677056e-05   7.677056e-05  
0.05695562     7.669481e-05   7.669481e-05  
0.05740835     7.661914e-05   7.661914e-05  
0.05786174     7.65435e-05    7.65435e-05   
0.05831556     7.646794e-05   7.646794e-05  
0.05877004     7.639243e-05   7.639243e-05  
0.05922497     7.631698e-05   7.631698e-05  
0.05968055     7.624158e-05   7.624158e-05  
0.06013657     7.616625e-05   7.616625e-05  
0.06059326     7.609097e-05   7.609097e-05  
0.06105039     7.601575e-05   7.601575e-05  
0.06150797     7.594062e-05   7.594062e-05  
0.06196622     7.586552e-05   7.586552e-05  
0.06242491     7.57905e-05    7.57905e-05   
0.06288406     7.571555e-05   7.571555e-05  
0.06334388     7.564064e-05   7.564064e-05  
0.06380415     7.556581e-05   7.556581e-05  
0.06426488     7.549105e-05   7.549105e-05  
0.06472606     7.541636e-05   7.541636e-05  
0.06518769     7.534175e-05   7.534175e-05  
0.06564979     7.526722e-05   7.526722e-05  
0.06611234     7.519276e-05   7.519276e-05  
0.06657534     7.511837e-05   7.511837e-05  
0.06703881     7.504406e-05   7.504406e-05  
0.06750274     7.496982e-05   7.496982e-05  
0.06796713     7.489566e-05   7.489566e-05  
0.06843199     7.482157e-05   7.482157e-05  
0.06889731     7.474755e-05   7.474755e-05  
0.06936309     7.467361e-05   7.467361e-05  
0.06982934     7.459974e-05   7.459974e-05  
0.07029606     7.452594e-05   7.452594e-05  
0.07076325     7.445222e-05   7.445222e-05  
0.07123091     7.437857e-05   7.437857e-05  
0.07169903     7.430499e-05   7.430499e-05  
0.0721674      7.423152e-05   7.423152e-05  
0.07263624     7.415813e-05   7.415813e-05  
0.07310555     7.408481e-05   7.408481e-05  
0.07357534     7.401156e-05   7.401156e-05  
0.07404561     7.393838e-05   7.393838e-05  
0.07451635     7.386527e-05   7.386527e-05  
0.07498734     7.379228e-05   7.379228e-05  
0.0754588      7.371935e-05   7.371935e-05  
0.07593075     7.36465e-05    7.36465e-05   
0.07640318     7.357372e-05   7.357372e-05  
0.07687584     7.350104e-05   7.350104e-05  
0.077349       7.342844e-05   7.342844e-05  
0.07782264     7.335591e-05   7.335591e-05  
0.07829652     7.328349e-05   7.328349e-05  
0.07877089     7.321114e-05   7.321114e-05  
0.07924575     7.313886e-05   7.313886e-05  
0.07972086     7.306668e-05   7.306668e-05  
0.08019646     7.299458e-05   7.299458e-05  
0.0806723      7.292258e-05   7.292258e-05  
0.08114863     7.285065e-05   7.285065e-05  
0.08162522     7.277883e-05   7.277883e-05  
0.08210205     7.270712e-05   7.270712e-05  
0.08257937     7.263548e-05   7.263548e-05  
0.08305695     7.256394e-05   7.256394e-05  
0.08353502     7.249247e-05   7.249247e-05  
0.08401334     7.242111e-05   7.242111e-05  
0.08449191     7.234985e-05   7.234985e-05  
0.08497099     7.227867e-05   7.227867e-05  
0.08545031     7.220759e-05   7.220759e-05  
0.08592989     7.213661e-05   7.213661e-05  
0.08640996     7.20657e-05    7.20657e-05   
0.0868903      7.19949e-05    7.19949e-05   
0.08737088     7.19242e-05    7.19242e-05   
0.08785197     7.185357e-05   7.185357e-05  
0.08833332     7.178304e-05   7.178304e-05  
0.08881491     7.171262e-05   7.171262e-05  
0.08929702     7.164226e-05   7.164226e-05  
0.08977939     7.157201e-05   7.157201e-05  
0.09026201     7.150186e-05   7.150186e-05  
0.09074514     7.143178e-05   7.143178e-05  
0.09122853     7.13618e-05    7.13618e-05   
0.09171217     7.129193e-05   7.129193e-05  
0.09219608     7.122216e-05   7.122216e-05  
0.0926805      7.115245e-05   7.115245e-05  
0.09316518     7.108285e-05   7.108285e-05  
0.09365012     7.101335e-05   7.101335e-05  
0.09413531     7.094395e-05   7.094395e-05  
0.09462103     7.087462e-05   7.087462e-05  
0.09510701     7.080539e-05   7.080539e-05  
0.09559325     7.073626e-05   7.073626e-05  
0.09608002     7.066719e-05   7.066719e-05  
0.09656704     7.059823e-05   7.059823e-05  
0.09705433     7.052937e-05   7.052937e-05  
0.09754188     7.046061e-05   7.046061e-05  
0.09802996     7.039191e-05   7.039191e-05  
0.0985183      7.032331e-05   7.032331e-05  
0.09900691     7.025482e-05   7.025482e-05  
0.09949605     7.018638e-05   7.018638e-05  
0.09998545     7.011805e-05   7.011805e-05  
0.1004751      7.004982e-05   7.004982e-05  
0.1009653      6.998165e-05   6.998165e-05  
0.1014558      6.991358e-05   6.991358e-05  
0.1019468      6.984557e-05   6.984557e-05  
0.1024381      6.977766e-05   6.977766e-05  
0.1029296      6.970985e-05   6.970985e-05  
0.1034217      6.96421e-05    6.96421e-05   
0.1039141      6.957446e-05   6.957446e-05  
0.1044067      6.950691e-05   6.950691e-05  
0.1048999      6.943942e-05   6.943942e-05  
0.1053933      6.937203e-05   6.937203e-05  
0.1058873      6.93047e-05    6.93047e-05   
0.1063815      6.923747e-05   6.923747e-05  
0.1068761      6.917033e-05   6.917033e-05  
0.1073712      6.910326e-05   6.910326e-05  
0.1078665      6.903629e-05   6.903629e-05  
0.1083621      6.896941e-05   6.896941e-05  
0.1088583      6.890259e-05   6.890259e-05  
0.1093548      6.883587e-05   6.883587e-05  
0.1098518      6.876921e-05   6.876921e-05  
0.1103491      6.870264e-05   6.870264e-05  
0.1108469      6.863614e-05   6.863614e-05  
0.1113451      6.856973e-05   6.856973e-05  
0.1118435      6.850342e-05   6.850342e-05  
0.1123421      6.84372e-05    6.84372e-05   
0.1128414      6.837105e-05   6.837105e-05  
0.1133409      6.830498e-05   6.830498e-05  
0.1138407      6.823902e-05   6.823902e-05  
0.1143411      6.817311e-05   6.817311e-05  
0.1148417      6.81073e-05    6.81073e-05   
0.115343       6.804154e-05   6.804154e-05  
0.1158445      6.797588e-05   6.797588e-05  
0.1163463      6.791032e-05   6.791032e-05  
0.1168486      6.784481e-05   6.784481e-05  
0.1173513      6.77794e-05    6.77794e-05   
0.1178545      6.771404e-05   6.771404e-05  
0.118358       6.764878e-05   6.764878e-05  
0.1188618      6.758361e-05   6.758361e-05  
0.1193662      6.75185e-05    6.75185e-05   
0.1198708      6.745348e-05   6.745348e-05  
0.1203761      6.738852e-05   6.738852e-05  
0.1208816      6.732366e-05   6.732366e-05  
0.1213874      6.725888e-05   6.725888e-05  
0.1218938      6.719416e-05   6.719416e-05  
0.1224005      6.712954e-05   6.712954e-05  
0.1229075      6.7065e-05     6.7065e-05    
0.1234151      6.700053e-05   6.700053e-05  
0.123923       6.693614e-05   6.693614e-05  
0.1244314      6.687181e-05   6.687181e-05  
0.1249402      6.680757e-05   6.680757e-05  
0.1254492      6.674343e-05   6.674343e-05  
0.1259589      6.667934e-05   6.667934e-05  
0.1264688      6.661534e-05   6.661534e-05  
0.1269794      6.655139e-05   6.655139e-05  
0.1274902      6.648754e-05   6.648754e-05  
0.1280013      6.642377e-05   6.642377e-05  
0.1285131      6.636006e-05   6.636006e-05  
0.1290251      6.629645e-05   6.629645e-05  
0.1295377      6.623288e-05   6.623288e-05  
0.1300507      6.616941e-05   6.616941e-05  
0.1305639      6.610602e-05   6.610602e-05  
0.1310778      6.604269e-05   6.604269e-05  
0.1315919      6.597945e-05   6.597945e-05  
0.1321064      6.59163e-05    6.59163e-05   
0.1326215      6.58532e-05    6.58532e-05   
0.1331368      6.579019e-05   6.579019e-05  
0.1336525      6.572727e-05   6.572727e-05  
0.1341688      6.56644e-05    6.56644e-05   
0.1346854      6.560162e-05   6.560162e-05  
0.1352027      6.55389e-05    6.55389e-05   
0.1357202      6.547626e-05   6.547626e-05  
0.136238       6.541371e-05   6.541371e-05  
0.1367565      6.535121e-05   6.535121e-05  
0.1372753      6.52888e-05    6.52888e-05   
0.1377944      6.522648e-05   6.522648e-05  
0.1383141      6.516421e-05   6.516421e-05  
0.1388341      6.510202e-05   6.510202e-05  
0.1393548      6.503989e-05   6.503989e-05  
0.1398757      6.497784e-05   6.497784e-05  
0.140397       6.491588e-05   6.491588e-05  
0.1409189      6.485398e-05   6.485398e-05  
0.1414412      6.479216e-05   6.479216e-05  
0.1419637      6.473042e-05   6.473042e-05  
0.1424869      6.466874e-05   6.466874e-05  
0.1430104      6.460714e-05   6.460714e-05  
0.1435343      6.454563e-05   6.454563e-05  
0.1440587      6.448417e-05   6.448417e-05  
0.1445835      6.442279e-05   6.442279e-05  
0.1451087      6.43615e-05    6.43615e-05   
0.1456341      6.43003e-05    6.43003e-05   
0.1461602      6.423914e-05   6.423914e-05  
0.1466866      6.417807e-05   6.417807e-05  
0.1472133      6.411709e-05   6.411709e-05  
0.1477407      6.405615e-05   6.405615e-05  
0.1482684      6.39953e-05    6.39953e-05   
0.1487965      6.393453e-05   6.393453e-05  
0.1493252      6.387381e-05   6.387381e-05  
0.1498542      6.381318e-05   6.381318e-05  
0.1503836      6.375262e-05   6.375262e-05  
0.1509136      6.369212e-05   6.369212e-05  
0.1514439      6.36317e-05    6.36317e-05   
0.1519749      6.357133e-05   6.357133e-05  
0.1525063      6.351104e-05   6.351104e-05  
0.1530383      6.345079e-05   6.345079e-05  
0.1535706      6.339064e-05   6.339064e-05  
0.1541033      6.333056e-05   6.333056e-05  
0.1546367      6.327053e-05   6.327053e-05  
0.1551704      6.321058e-05   6.321058e-05  
0.1557047      6.315068e-05   6.315068e-05  
0.1562394      6.309086e-05   6.309086e-05  
0.1567745      6.303113e-05   6.303113e-05  
0.1573102      6.297143e-05   6.297143e-05  
0.1578462      6.291183e-05   6.291183e-05  
0.1583826      6.28523e-05    6.28523e-05   
0.1589197      6.279282e-05   6.279282e-05  
0.1594572      6.273342e-05   6.273342e-05  
0.1599949      6.26741e-05    6.26741e-05   
0.1605331      6.261486e-05   6.261486e-05  
0.1610719      6.255567e-05   6.255567e-05  
0.161611       6.249656e-05   6.249656e-05  
0.1621505      6.243753e-05   6.243753e-05  
0.1626907      6.237854e-05   6.237854e-05  
0.1632313      6.231964e-05   6.231964e-05  
0.1637722      6.226081e-05   6.226081e-05  
0.1643138      6.220203e-05   6.220203e-05  
0.1648557      6.214333e-05   6.214333e-05  
0.1653984      6.208467e-05   6.208467e-05  
0.1659414      6.202609e-05   6.202609e-05  
0.1664848      6.196759e-05   6.196759e-05  
0.1670288      6.190913e-05   6.190913e-05  
0.1675732      6.185076e-05   6.185076e-05  
0.168118       6.179246e-05   6.179246e-05  
0.1686632      6.173424e-05   6.173424e-05  
0.169209       6.167607e-05   6.167607e-05  
0.1697552      6.161797e-05   6.161797e-05  
0.1703018      6.155995e-05   6.155995e-05  
0.1708491      6.150197e-05   6.150197e-05  
0.1713968      6.144408e-05   6.144408e-05  
0.1719448      6.138626e-05   6.138626e-05  
0.1724935      6.132848e-05   6.132848e-05  
0.1730426      6.127078e-05   6.127078e-05  
0.1735921      6.121315e-05   6.121315e-05  
0.1741419      6.115561e-05   6.115561e-05  
0.1746925      6.10981e-05    6.10981e-05   
0.1752435      6.104068e-05   6.104068e-05  
0.1757948      6.098333e-05   6.098333e-05  
0.1763464      6.092605e-05   6.092605e-05  
0.1768989      6.086882e-05   6.086882e-05  
0.1774516      6.081167e-05   6.081167e-05  
0.1780048      6.075459e-05   6.075459e-05  
0.1785583      6.069758e-05   6.069758e-05  
0.1791126      6.064062e-05   6.064062e-05  
0.1796673      6.058373e-05   6.058373e-05  
0.1802223      6.052692e-05   6.052692e-05  
0.1807777      6.047019e-05   6.047019e-05  
0.1813335      6.041353e-05   6.041353e-05  
0.1818896      6.035695e-05   6.035695e-05  
0.1824466      6.03004e-05    6.03004e-05   
0.1830039      6.024393e-05   6.024393e-05  
0.1835615      6.018754e-05   6.018754e-05  
0.1841196      6.013122e-05   6.013122e-05  
0.184678       6.007497e-05   6.007497e-05  
0.1852372      6.001877e-05   6.001877e-05  
0.1857968      5.996263e-05   5.996263e-05  
0.1863568      5.990657e-05   5.990657e-05  
0.1869172      5.985059e-05   5.985059e-05  
0.1874779      5.979468e-05   5.979468e-05  
0.188039       5.973885e-05   5.973885e-05  
0.188601       5.968305e-05   5.968305e-05  
0.1891633      5.962732e-05   5.962732e-05  
0.1897259      5.957167e-05   5.957167e-05  
0.190289       5.951609e-05   5.951609e-05  
0.1908529      5.946055e-05   5.946055e-05  
0.1914171      5.940508e-05   5.940508e-05  
0.1919818      5.934968e-05   5.934968e-05  
0.1925468      5.929436e-05   5.929436e-05  
0.1931123      5.92391e-05    5.92391e-05   
0.1936785      5.918389e-05   5.918389e-05  
0.1942452      5.912874e-05   5.912874e-05  
0.1948122      5.907367e-05   5.907367e-05  
0.1953796      5.901867e-05   5.901867e-05  
0.1959475      5.896374e-05   5.896374e-05  
0.1965157      5.890888e-05   5.890888e-05  
0.1970843      5.88541e-05    5.88541e-05   
0.1976534      5.879939e-05   5.879939e-05  
0.1982228      5.874474e-05   5.874474e-05  
0.1987927      5.869017e-05   5.869017e-05  
0.1993629      5.863567e-05   5.863567e-05  
0.199934       5.858121e-05   5.858121e-05  
0.2005055      5.852681e-05   5.852681e-05  
0.2010774      5.847248e-05   5.847248e-05  
0.2016496      5.841823e-05   5.841823e-05  
0.2022224      5.836404e-05   5.836404e-05  
0.2027955      5.830993e-05   5.830993e-05  
0.203369       5.825588e-05   5.825588e-05  
0.2039429      5.820191e-05   5.820191e-05  
0.2045173      5.8148e-05     5.8148e-05    
0.2050921      5.809416e-05   5.809416e-05  
0.2056672      5.80404e-05    5.80404e-05   
0.2062429      5.79867e-05    5.79867e-05   
0.2068189      5.793307e-05   5.793307e-05  
0.2073953      5.787951e-05   5.787951e-05  
0.2079722      5.782602e-05   5.782602e-05  
0.2085495      5.777259e-05   5.777259e-05  
0.2091272      5.771924e-05   5.771924e-05  
0.2097053      5.766595e-05   5.766595e-05  
0.2102842      5.761269e-05   5.761269e-05  
0.2108636      5.75595e-05    5.75595e-05   
0.2114435      5.750638e-05   5.750638e-05  
0.2120237      5.745333e-05   5.745333e-05  
0.2126044      5.740034e-05   5.740034e-05  
0.2131855      5.734742e-05   5.734742e-05  
0.213767       5.729457e-05   5.729457e-05  
0.214349       5.724178e-05   5.724178e-05  
0.2149314      5.718906e-05   5.718906e-05  
0.2155142      5.713641e-05   5.713641e-05  
0.2160979      5.708378e-05   5.708378e-05  
0.216682       5.703122e-05   5.703122e-05  
0.2172666      5.697873e-05   5.697873e-05  
0.2178516      5.69263e-05    5.69263e-05   
0.218437       5.687394e-05   5.687394e-05  
0.2190229      5.682164e-05   5.682164e-05  
0.2196092      5.676941e-05   5.676941e-05  
0.220196       5.671725e-05   5.671725e-05  
0.2207836      5.666511e-05   5.666511e-05  
0.2213717      5.661304e-05   5.661304e-05  
0.2219603      5.656103e-05   5.656103e-05  
0.2225492      5.650909e-05   5.650909e-05  
0.2231387      5.645721e-05   5.645721e-05  
0.2237285      5.640539e-05   5.640539e-05  
0.2243193      5.63536e-05    5.63536e-05   
0.2249105      5.630188e-05   5.630188e-05  
0.2255022      5.625022e-05   5.625022e-05  
0.2260943      5.619862e-05   5.619862e-05  
0.2266869      5.614709e-05   5.614709e-05  
0.2272799      5.609562e-05   5.609562e-05  
0.2278734      5.604421e-05   5.604421e-05  
0.2284674      5.599287e-05   5.599287e-05  
0.2290618      5.594159e-05   5.594159e-05  
0.2296571      5.589033e-05   5.589033e-05  
0.2302529      5.583914e-05   5.583914e-05  
0.2308491      5.5788e-05     5.5788e-05    
0.2314458      5.573694e-05   5.573694e-05  
0.232043       5.568593e-05   5.568593e-05  
0.2326406      5.563499e-05   5.563499e-05  
0.2332387      5.55841e-05    5.55841e-05   
0.2338377      5.553325e-05   5.553325e-05  
0.2344372      5.548245e-05   5.548245e-05  
0.2350372      5.543171e-05   5.543171e-05  
0.2356377      5.538104e-05   5.538104e-05  
0.2362386      5.533043e-05   5.533043e-05  
0.23684        5.527988e-05   5.527988e-05  
0.2374418      5.522939e-05   5.522939e-05  
0.2380446      5.517892e-05   5.517892e-05  
0.2386479      5.512851e-05   5.512851e-05  
0.2392517      5.507816e-05   5.507816e-05  
0.2398559      5.502788e-05   5.502788e-05  
0.2404607      5.497765e-05   5.497765e-05  
0.2410659      5.492749e-05   5.492749e-05  
0.2416716      5.487738e-05   5.487738e-05  
0.2422777      5.482734e-05   5.482734e-05  
0.2428844      5.477735e-05   5.477735e-05  
0.2434916      5.472742e-05   5.472742e-05  
0.2440992      5.467756e-05   5.467756e-05  
0.2447073      5.462775e-05   5.462775e-05  
0.2453159      5.4578e-05     5.4578e-05    
0.245925       5.452831e-05   5.452831e-05  
0.2465346      5.447868e-05   5.447868e-05  
0.2471447      5.442911e-05   5.442911e-05  
0.2477553      5.43796e-05    5.43796e-05   
0.2483664      5.433014e-05   5.433014e-05  
0.248978       5.428075e-05   5.428075e-05  
0.2495901      5.423141e-05   5.423141e-05  
0.2502027      5.418213e-05   5.418213e-05  
0.2508152      5.413295e-05   5.413295e-05  
0.2514283      5.408382e-05   5.408382e-05  
0.2520419      5.403476e-05   5.403476e-05  
0.2526555      5.398579e-05   5.398579e-05  
0.2532696      5.393687e-05   5.393687e-05  
0.2538842      5.388802e-05   5.388802e-05  
0.2544993      5.383922e-05   5.383922e-05  
0.2551149      5.379048e-05   5.379048e-05  
0.255731       5.374179e-05   5.374179e-05  
0.2563476      5.369316e-05   5.369316e-05  
0.2569653      5.364455e-05   5.364455e-05  
0.2575829      5.359603e-05   5.359603e-05  
0.2582016      5.354753e-05   5.354753e-05  
0.2588208      5.349908e-05   5.349908e-05  
0.259441       5.345065e-05   5.345065e-05  
0.2600618      5.340228e-05   5.340228e-05  
0.2606831      5.335396e-05   5.335396e-05  
0.2613048      5.330569e-05   5.330569e-05  
0.2619272      5.325749e-05   5.325749e-05  
0.26255        5.320933e-05   5.320933e-05  
0.2631734      5.316123e-05   5.316123e-05  
0.2637968      5.311323e-05   5.311323e-05  
0.2644207      5.306528e-05   5.306528e-05  
0.2650451      5.301738e-05   5.301738e-05  
0.2656701      5.296954e-05   5.296954e-05  
0.2662955      5.292175e-05   5.292175e-05  
0.2669216      5.287402e-05   5.287402e-05  
0.2675481      5.282634e-05   5.282634e-05  
0.2681752      5.277871e-05   5.277871e-05  
0.2688029      5.273114e-05   5.273114e-05  
0.2694311      5.268362e-05   5.268362e-05  
0.2700598      5.263616e-05   5.263616e-05  
0.270689       5.258874e-05   5.258874e-05  
0.2713188      5.254138e-05   5.254138e-05  
0.2719492      5.249408e-05   5.249408e-05  
0.2725801      5.244682e-05   5.244682e-05  
0.2732115      5.239962e-05   5.239962e-05  
0.273843       5.235251e-05   5.235251e-05  
0.2744749      5.230545e-05   5.230545e-05  
0.2751075      5.225845e-05   5.225845e-05  
0.2757406      5.221149e-05   5.221149e-05  
0.2763737      5.216463e-05   5.216463e-05  
0.2770073      5.211782e-05   5.211782e-05  
0.2776415      5.207106e-05   5.207106e-05  
0.2782763      5.202436e-05   5.202436e-05  
0.2789116      5.19777e-05    5.19777e-05   
0.2795475      5.193109e-05   5.193109e-05  
0.2801839      5.188454e-05   5.188454e-05  
0.2808209      5.183804e-05   5.183804e-05  
0.2814585      5.179158e-05   5.179158e-05  
0.2820966      5.174518e-05   5.174518e-05  
0.2827353      5.169883e-05   5.169883e-05  
0.2833746      5.165252e-05   5.165252e-05  
0.2840145      5.160627e-05   5.160627e-05  
0.2846549      5.156007e-05   5.156007e-05  
0.2852959      5.151391e-05   5.151391e-05  
0.2859374      5.146781e-05   5.146781e-05  
0.2865796      5.142175e-05   5.142175e-05  
0.2872223      5.137574e-05   5.137574e-05  
0.2878656      5.132979e-05   5.132979e-05  
0.2885095      5.128388e-05   5.128388e-05  
0.2891539      5.123802e-05   5.123802e-05  
0.289799       5.119221e-05   5.119221e-05  
0.290444       5.114648e-05   5.114648e-05  
0.2910897      5.110081e-05   5.110081e-05  
0.2917359      5.105519e-05   5.105519e-05  
0.2923827      5.100961e-05   5.100961e-05  
0.2930295      5.096412e-05   5.096412e-05  
0.293677       5.091868e-05   5.091868e-05  
0.294325       5.087328e-05   5.087328e-05  
0.2949736      5.082794e-05   5.082794e-05  
0.2956222      5.078268e-05   5.078268e-05  
0.2962714      5.073747e-05   5.073747e-05  
0.2969211      5.06923e-05    5.06923e-05   
0.2975715      5.064719e-05   5.064719e-05  
0.2982225      5.060211e-05   5.060211e-05  
0.2988741      5.055709e-05   5.055709e-05  
0.2995264      5.051211e-05   5.051211e-05  
0.3001792      5.046718e-05   5.046718e-05  
0.3008326      5.042229e-05   5.042229e-05  
0.3014866      5.037745e-05   5.037745e-05  
0.3021407      5.03327e-05    5.03327e-05   
0.3027953      5.028799e-05   5.028799e-05  
0.3034506      5.024333e-05   5.024333e-05  
0.3041065      5.019871e-05   5.019871e-05  
0.304763       5.015414e-05   5.015414e-05  
0.3054201      5.010961e-05   5.010961e-05  
0.3060779      5.006513e-05   5.006513e-05  
0.3067362      5.002069e-05   5.002069e-05  
0.3073946      4.997634e-05   4.997634e-05  
0.3080536      4.993203e-05   4.993203e-05  
0.3087132      4.988777e-05   4.988777e-05  
0.3093735      4.984355e-05   4.984355e-05  
0.3100344      4.979937e-05   4.979937e-05  
0.3106952      4.975528e-05   4.975528e-05  
0.3113568      4.971124e-05   4.971124e-05  
0.3120189      4.966724e-05   4.966724e-05  
0.3126817      4.962328e-05   4.962328e-05  
0.3133452      4.957936e-05   4.957936e-05  
0.3140092      4.953549e-05   4.953549e-05  
0.3146733      4.94917e-05    4.94917e-05   
0.315338       4.944795e-05   4.944795e-05  
0.3160034      4.940425e-05   4.940425e-05  
0.3166694      4.936059e-05   4.936059e-05  
0.3173354      4.931701e-05   4.931701e-05  
0.3180021      4.927348e-05   4.927348e-05  
0.3186694      4.922999e-05   4.922999e-05  
0.3193374      4.918654e-05   4.918654e-05  
0.320006       4.914313e-05   4.914313e-05  
0.3206746      4.90998e-05    4.90998e-05   
0.3213439      4.905652e-05   4.905652e-05  
0.3220139      4.901328e-05   4.901328e-05  
0.3226845      4.897008e-05   4.897008e-05  
0.3233557      4.892692e-05   4.892692e-05  
0.324027       4.888384e-05   4.888384e-05  
0.324699       4.88408e-05    4.88408e-05   
0.3253716      4.879781e-05   4.879781e-05  
0.3260442      4.875489e-05   4.875489e-05  
0.3267175      4.871202e-05   4.871202e-05  
0.3273914      4.866919e-05   4.866919e-05  
0.3280661      4.86264e-05    4.86264e-05   
0.3287414      4.858364e-05   4.858364e-05  
0.3294167      4.854097e-05   4.854097e-05  
0.3300927      4.849834e-05   4.849834e-05  
0.3307693      4.845575e-05   4.845575e-05  
0.3314467      4.841319e-05   4.841319e-05  
0.3321241      4.837072e-05   4.837072e-05  
0.3328021      4.832829e-05   4.832829e-05  
0.3334808      4.82859e-05    4.82859e-05   