# Probe 0 (0 0 0)
# Probe 1 (0 0.011 0)
# Time         0              1             
46             0.01332403     0.01332403    
46.00014       0.01332406     0.01332406    
46.00027       0.0133241      0.0133241     
46.00041       0.01332413     0.01332413    
46.00054       0.01332417     0.01332417    
46.00068       0.0133242      0.0133242     
46.00081       0.01332424     0.01332424    
46.00095       0.01332427     0.01332427    
46.00108       0.01332431     0.01332431    
46.00122       0.01332434     0.01332434    
46.00135       0.01332438     0.01332438    
46.00148       0.01332441     0.01332441    
46.00162       0.01332445     0.01332445    
46.00175       0.01332448     0.01332448    
46.00188       0.01332451     0.01332451    
46.00202       0.01332455     0.01332455    
46.00215       0.01332458     0.01332458    
46.00228       0.01332462     0.01332462    
46.00241       0.01332465     0.01332465    
46.00254       0.01332469     0.01332469    
46.00267       0.01332472     0.01332472    
46.00281       0.01332475     0.01332475    
46.00294       0.01332479     0.01332479    
46.00307       0.01332482     0.01332482    
46.0032        0.01332485     0.01332485    
46.00333       0.01332489     0.01332489    
46.00346       0.01332492     0.01332492    
46.00359       0.01332495     0.01332495    
46.00371       0.01332499     0.01332499    
46.00384       0.01332502     0.01332502    
46.00397       0.01332505     0.01332505    
46.0041        0.01332509     0.01332509    
46.00423       0.01332512     0.01332512    
46.00436       0.01332515     0.01332515    
46.00449       0.01332518     0.01332518    
46.00461       0.01332522     0.01332522    
46.00474       0.01332525     0.01332525    
46.00487       0.01332528     0.01332528    
46.005         0.01332532     0.01332532    
46.00512       0.01332535     0.01332535    
46.00525       0.01332538     0.01332538    
46.00538       0.01332541     0.01332541    
46.0055        0.01332545     0.01332545    
46.00563       0.01332548     0.01332548    
46.00575       0.01332551     0.01332551    
46.00588       0.01332555     0.01332555    
46.00601       0.01332558     0.01332558    
46.00613       0.01332561     0.01332561    
46.00626       0.01332564     0.01332564    
46.00638       0.01332568     0.01332568    
46.00651       0.01332571     0.01332571    
46.00663       0.01332574     0.01332574    
46.00676       0.01332578     0.01332578    
46.00688       0.01332581     0.01332581    
46.00701       0.01332584     0.01332584    
46.00713       0.01332588     0.01332588    
46.00726       0.01332591     0.01332591    
46.00738       0.01332594     0.01332594    
46.0075        0.01332597     0.01332597    
46.00763       0.01332601     0.01332601    
46.00775       0.01332604     0.01332604    
46.00788       0.01332607     0.01332607    
46.008         0.0133261      0.0133261     
46.00812       0.01332614     0.01332614    
46.00825       0.01332617     0.01332617    
46.00837       0.0133262      0.0133262     
46.00849       0.01332623     0.01332623    
46.00862       0.01332626     0.01332626    
46.00874       0.01332629     0.01332629    
46.00886       0.01332633     0.01332633    
46.00898       0.01332636     0.01332636    
46.00911       0.01332639     0.01332639    
46.00923       0.01332642     0.01332642    
46.00935       0.01332645     0.01332645    
46.00948       0.01332648     0.01332648    
46.0096        0.01332651     0.01332651    
46.00972       0.01332654     0.01332654    
46.00984       0.01332657     0.01332657    
46.00997       0.0133266      0.0133266     
46.01009       0.01332663     0.01332663    
46.01021       0.01332667     0.01332667    
46.01033       0.0133267      0.0133267     
46.01045       0.01332673     0.01332673    
46.01058       0.01332676     0.01332676    
46.0107        0.01332679     0.01332679    
46.01082       0.01332682     0.01332682    
46.01094       0.01332686     0.01332686    
46.01107       0.01332689     0.01332689    
46.01119       0.01332692     0.01332692    
46.01131       0.01332695     0.01332695    
46.01143       0.01332698     0.01332698    
46.01155       0.01332701     0.01332701    
46.01168       0.01332705     0.01332705    
46.0118        0.01332708     0.01332708    
46.01192       0.01332711     0.01332711    
46.01204       0.01332714     0.01332714    
46.01216       0.01332717     0.01332717    
46.01229       0.0133272      0.0133272     
46.01241       0.01332723     0.01332723    
46.01253       0.01332726     0.01332726    
46.01265       0.01332729     0.01332729    
46.01277       0.01332733     0.01332733    
46.0129        0.01332736     0.01332736    
46.01302       0.01332739     0.01332739    
46.01314       0.01332742     0.01332742    
46.01326       0.01332745     0.01332745    
46.01339       0.01332748     0.01332748    
46.01351       0.01332751     0.01332751    
46.01363       0.01332754     0.01332754    
46.01375       0.01332757     0.01332757    
46.01388       0.0133276      0.0133276     
46.014         0.01332763     0.01332763    
46.01412       0.01332766     0.01332766    
46.01424       0.0133277      0.0133277     
46.01437       0.01332773     0.01332773    
46.01449       0.01332776     0.01332776    
46.01461       0.01332779     0.01332779    
46.01473       0.01332782     0.01332782    
46.01486       0.01332786     0.01332786    
46.01498       0.01332789     0.01332789    
46.0151        0.01332792     0.01332792    
46.01523       0.01332795     0.01332795    
46.01535       0.01332798     0.01332798    
46.01547       0.01332802     0.01332802    
46.0156        0.01332805     0.01332805    
46.01572       0.01332808     0.01332808    
46.01585       0.01332811     0.01332811    
46.01597       0.01332814     0.01332814    
46.01609       0.01332817     0.01332817    
46.01622       0.01332821     0.01332821    
46.01634       0.01332824     0.01332824    
46.01647       0.01332827     0.01332827    
46.01659       0.0133283      0.0133283     
46.01672       0.01332833     0.01332833    
46.01684       0.01332837     0.01332837    
46.01697       0.0133284      0.0133284     
46.01709       0.01332843     0.01332843    
46.01722       0.01332846     0.01332846    
46.01734       0.01332849     0.01332849    
46.01747       0.01332853     0.01332853    
46.01759       0.01332856     0.01332856    
46.01772       0.01332859     0.01332859    
46.01784       0.01332863     0.01332863    
46.01797       0.01332866     0.01332866    
46.0181        0.01332869     0.01332869    
46.01822       0.01332872     0.01332872    
46.01835       0.01332876     0.01332876    
46.01848       0.01332879     0.01332879    
46.0186        0.01332883     0.01332883    
46.01873       0.01332886     0.01332886    
46.01886       0.01332889     0.01332889    
46.01898       0.01332893     0.01332893    
46.01911       0.01332896     0.01332896    
46.01924       0.01332899     0.01332899    
46.01937       0.01332902     0.01332902    
46.0195        0.01332906     0.01332906    
46.01962       0.01332909     0.01332909    
46.01975       0.01332912     0.01332912    
46.01988       0.01332916     0.01332916    
46.02001       0.01332919     0.01332919    
46.02014       0.01332922     0.01332922    
46.02027       0.01332926     0.01332926    
46.0204        0.01332929     0.01332929    
46.02053       0.01332932     0.01332932    
46.02066       0.01332936     0.01332936    
46.02079       0.01332939     0.01332939    
46.02092       0.01332942     0.01332942    
46.02105       0.01332946     0.01332946    
46.02118       0.01332949     0.01332949    
46.02131       0.01332952     0.01332952    
46.02144       0.01332956     0.01332956    
46.02158       0.01332959     0.01332959    
46.02171       0.01332963     0.01332963    
46.02184       0.01332966     -1.797693e+307
46.02197       0.0133297      -1.797693e+307
46.02211       0.01332973     -1.797693e+307
46.02224       0.01332977     -1.797693e+307
46.02237       0.0133298      -1.797693e+307
46.02251       0.01332984     -1.797693e+307
46.02264       0.01332987     -1.797693e+307
46.02277       0.01332991     -1.797693e+307
46.02291       0.01332994     -1.797693e+307
46.02304       0.01332998     -1.797693e+307
46.02318       0.01333002     -1.797693e+307
46.02331       0.01333005     -1.797693e+307
46.02345       0.01333009     -1.797693e+307
46.02359       0.01333012     -1.797693e+307
46.02372       0.01333016     -1.797693e+307
46.02386       0.01333019     -1.797693e+307
46.024         0.01333023     -1.797693e+307
46.02413       0.01333027     -1.797693e+307
46.02427       0.0133303      -1.797693e+307
46.02441       0.01333034     -1.797693e+307
46.02455       0.01333037     -1.797693e+307
46.02469       0.01333041     -1.797693e+307
46.02483       0.01333045     -1.797693e+307
46.02497       0.01333048     -1.797693e+307
46.02511       0.01333052     -1.797693e+307
46.02525       0.01333055     -1.797693e+307
46.02539       0.01333059     -1.797693e+307
46.02553       0.01333063     -1.797693e+307
46.02567       0.01333066     -1.797693e+307
46.02581       0.0133307      -1.797693e+307
46.02595       0.01333074     -1.797693e+307
46.0261        0.01333077     -1.797693e+307
46.02624       0.01333081     -1.797693e+307
46.02638       0.01333084     -1.797693e+307
46.02653       0.01333088     -1.797693e+307
46.02667       0.01333092     -1.797693e+307
46.02682       0.01333096     -1.797693e+307
46.02696       0.01333099     -1.797693e+307
46.02711       0.01333103     -1.797693e+307
46.02726       0.01333107     -1.797693e+307
46.0274        0.01333111     -1.797693e+307
46.02755       0.01333114     -1.797693e+307
46.0277        0.01333118     -1.797693e+307
46.02785       0.01333122     -1.797693e+307
46.028         0.01333126     -1.797693e+307
46.02815       0.0133313      -1.797693e+307
46.0283        0.01333134     -1.797693e+307
46.02845       0.01333138     -1.797693e+307
46.0286        0.01333142     -1.797693e+307
46.02875       0.01333146     -1.797693e+307
46.0289        0.0133315      -1.797693e+307
46.02905       0.01333154     -1.797693e+307
46.02921       0.01333158     -1.797693e+307
46.02936       0.01333162     -1.797693e+307
46.02952       0.01333166     -1.797693e+307
46.02967       0.0133317      -1.797693e+307
46.02983       0.01333174     -1.797693e+307
46.02999       0.01333178     -1.797693e+307
46.03014       0.01333183     -1.797693e+307
46.0303        0.01333187     -1.797693e+307
46.03046       0.01333191     -1.797693e+307
46.03062       0.01333195     -1.797693e+307
46.03078       0.013332       -1.797693e+307
46.03094       0.01333204     -1.797693e+307
46.0311        0.01333209     -1.797693e+307
46.03127       0.01333213     -1.797693e+307
46.03143       0.01333217     -1.797693e+307
46.03159       0.01333222     -1.797693e+307
46.03176       0.01333227     -1.797693e+307
46.03193       0.01333231     -1.797693e+307
46.03209       0.01333236     -1.797693e+307
46.03226       0.0133324      -1.797693e+307
46.03243       0.01333245     -1.797693e+307
46.0326        0.0133325      -1.797693e+307
46.03277       0.01333254     -1.797693e+307
46.03294       0.01333259     -1.797693e+307
46.03311       0.01333263     -1.797693e+307
46.03328       0.01333268     -1.797693e+307
46.03345       0.01333273     -1.797693e+307
46.03362       0.01333277     -1.797693e+307
46.03379       0.01333282     -1.797693e+307
46.03396       0.01333286     -1.797693e+307
46.03413       0.01333291     -1.797693e+307
46.0343        0.01333295     -1.797693e+307
46.03447       0.013333       -1.797693e+307
46.03464       0.01333304     -1.797693e+307
46.03481       0.01333309     -1.797693e+307
46.03498       0.01333314     -1.797693e+307
46.03515       0.01333318     -1.797693e+307
46.03532       0.01333323     -1.797693e+307
46.03549       0.01333327     -1.797693e+307
46.03566       0.01333332     -1.797693e+307
46.03583       0.01333337     -1.797693e+307
46.036         0.01333341     -1.797693e+307
46.03617       0.01333346     -1.797693e+307
46.03634       0.0133335      -1.797693e+307
46.03651       0.01333355     -1.797693e+307
46.03668       0.01333359     -1.797693e+307
46.03685       0.01333364     -1.797693e+307
46.03702       0.01333369     -1.797693e+307
46.03719       0.01333373     -1.797693e+307
46.03736       0.01333378     -1.797693e+307
46.03753       0.01333382     -1.797693e+307
46.0377        0.01333387     -1.797693e+307
46.03787       0.01333391     -1.797693e+307
46.03804       0.01333396     -1.797693e+307
46.03821       0.013334       -1.797693e+307
46.03838       0.01333405     -1.797693e+307
46.03856       0.0133341      -1.797693e+307
46.03873       0.01333414     -1.797693e+307
46.0389        0.01333419     -1.797693e+307
46.03907       0.01333424     -1.797693e+307
46.03924       0.01333428     -1.797693e+307
46.03941       0.01333433     -1.797693e+307
46.03958       0.01333437     -1.797693e+307
46.03975       0.01333442     -1.797693e+307
46.03992       0.01333447     -1.797693e+307
46.04009       0.01333451     -1.797693e+307
46.04025       0.01333456     -1.797693e+307
46.04042       0.0133346      -1.797693e+307
46.04059       0.01333465     -1.797693e+307
46.04076       0.01333469     -1.797693e+307
46.04093       0.01333474     0.01333474    
46.04109       0.01333478     0.01333478    
46.04126       0.01333483     0.01333483    
46.04143       0.01333487     0.01333487    
46.04159       0.01333492     0.01333492    
46.04176       0.01333496     0.01333496    
46.04193       0.013335       0.013335      
46.04209       0.01333505     0.01333505    
46.04226       0.01333509     0.01333509    
46.04243       0.01333514     0.01333514    
46.04259       0.01333518     0.01333518    
46.04276       0.01333523     0.01333523    
46.04292       0.01333527     0.01333527    
46.04309       0.01333531     0.01333531    
46.04325       0.01333536     0.01333536    
46.04342       0.0133354      0.0133354     
46.04358       0.01333545     0.01333545    
46.04374       0.01333549     0.01333549    
46.04391       0.01333553     0.01333553    
46.04407       0.01333558     0.01333558    
46.04424       0.01333562     0.01333562    
46.0444        0.01333566     0.01333566    
46.04456       0.01333571     0.01333571    
46.04473       0.01333575     0.01333575    
46.04489       0.01333579     0.01333579    
46.04505       0.01333584     0.01333584    
46.04522       0.01333588     0.01333588    
46.04538       0.01333592     0.01333592    
46.04554       0.01333597     0.01333597    
46.0457        0.01333601     0.01333601    
46.04587       0.01333606     0.01333606    
46.04603       0.0133361      0.0133361     
46.04619       0.01333614     0.01333614    
46.04635       0.01333619     0.01333619    
46.04651       0.01333623     0.01333623    
46.04668       0.01333628     0.01333628    
46.04684       0.01333632     0.01333632    
46.047         0.01333637     0.01333637    
46.04716       0.01333641     0.01333641    
46.04732       0.01333646     0.01333646    
46.04748       0.0133365      0.0133365     
46.04764       0.01333655     0.01333655    
46.0478        0.01333659     0.01333659    
46.04797       0.01333664     0.01333664    
46.04813       0.01333668     0.01333668    
46.04829       0.01333673     0.01333673    
46.04845       0.01333677     0.01333677    
46.04861       0.01333682     0.01333682    
46.04877       0.01333686     0.01333686    
46.04893       0.0133369      0.0133369     
46.04909       0.01333695     0.01333695    
46.04925       0.01333699     0.01333699    
46.04941       0.01333704     0.01333704    
46.04957       0.01333708     0.01333708    
46.04973       0.01333713     0.01333713    
46.04989       0.01333717     0.01333717    
46.05005       0.01333721     0.01333721    
46.05021       0.01333726     0.01333726    
46.05037       0.0133373      0.0133373     
46.05053       0.01333734     0.01333734    
46.05069       0.01333739     0.01333739    
46.05085       0.01333743     0.01333743    
46.051         0.01333748     0.01333748    
46.05116       0.01333752     0.01333752    
46.05132       0.01333756     0.01333756    
46.05148       0.01333761     0.01333761    
46.05164       0.01333765     0.01333765    
46.0518        0.01333769     0.01333769    
46.05196       0.01333774     0.01333774    
46.05212       0.01333778     0.01333778    
46.05228       0.01333783     0.01333783    
46.05244       0.01333787     0.01333787    
46.0526        0.01333791     0.01333791    
46.05275       0.01333796     0.01333796    
46.05291       0.013338       0.013338      
46.05307       0.01333805     0.01333805    
46.05323       0.01333809     0.01333809    
46.05339       0.01333813     0.01333813    
46.05355       0.01333818     0.01333818    
46.05371       0.01333822     0.01333822    
46.05387       0.01333826     0.01333826    
46.05402       0.01333831     0.01333831    
46.05418       0.01333835     0.01333835    
46.05434       0.01333839     0.01333839    
46.0545        0.01333844     0.01333844    
46.05466       0.01333848     0.01333848    
46.05482       0.01333852     0.01333852    
46.05497       0.01333857     0.01333857    
46.05513       0.01333861     0.01333861    
46.05529       0.01333865     0.01333865    
46.05545       0.01333869     0.01333869    
46.05561       0.01333874     0.01333874    
46.05577       0.01333878     0.01333878    
46.05592       0.01333882     0.01333882    
46.05608       0.01333887     0.01333887    
46.05624       0.01333891     0.01333891    
46.0564        0.01333895     0.01333895    
46.05656       0.013339       0.013339      
46.05672       0.01333904     0.01333904    
46.05688       0.01333908     0.01333908    
46.05703       0.01333913     0.01333913    
46.05719       0.01333917     0.01333917    
46.05735       0.01333921     0.01333921    
46.05751       0.01333926     0.01333926    
46.05767       0.0133393      0.0133393     
46.05783       0.01333935     0.01333935    
46.05799       0.01333939     0.01333939    
46.05815       0.01333943     0.01333943    
46.05831       0.01333948     0.01333948    
46.05846       0.01333952     0.01333952    
46.05862       0.01333956     0.01333956    
46.05878       0.01333961     0.01333961    
46.05894       0.01333965     0.01333965    
46.0591        0.01333969     0.01333969    
46.05926       0.01333974     0.01333974    
46.05942       0.01333978     0.01333978    
46.05958       0.01333983     0.01333983    
46.05974       0.01333987     0.01333987    
46.0599        0.01333991     0.01333991    
46.06006       0.01333996     0.01333996    
46.06022       0.01334        0.01334       
46.06038       0.01334005     0.01334005    
46.06054       0.01334009     0.01334009    
46.0607        0.01334014     0.01334014    
46.06086       0.01334018     0.01334018    
46.06102       0.01334022     0.01334022    
46.06118       0.01334027     0.01334027    
46.06134       0.01334031     0.01334031    
46.0615        0.01334036     0.01334036    
46.06166       0.0133404      0.0133404     
46.06182       0.01334045     0.01334045    
46.06198       0.01334049     0.01334049    
46.06214       0.01334054     0.01334054    
46.0623        0.01334058     0.01334058    
46.06246       0.01334063     0.01334063    
46.06262       0.01334067     0.01334067    
46.06278       0.01334072     0.01334072    
46.06294       0.01334076     0.01334076    
46.0631        0.01334081     0.01334081    
46.06326       0.01334085     0.01334085    
46.06342       0.0133409      0.0133409     
46.06358       0.01334094     0.01334094    
46.06375       0.01334099     0.01334099    
46.06391       0.01334104     0.01334104    
46.06407       0.01334108     0.01334108    
46.06423       0.01334113     0.01334113    
46.06439       0.01334117     0.01334117    
46.06455       0.01334122     0.01334122    
46.06471       0.01334126     0.01334126    
46.06487       0.01334131     0.01334131    
46.06503       0.01334135     0.01334135    
46.0652        0.0133414      0.0133414     
46.06536       0.01334144     0.01334144    
46.06552       0.01334149     0.01334149    
46.06568       0.01334153     0.01334153    
46.06584       0.01334158     0.01334158    
46.066         0.01334162     0.01334162    
46.06616       0.01334167     0.01334167    
46.06633       0.01334172     0.01334172    
46.06649       0.01334176     0.01334176    
46.06665       0.01334181     0.01334181    
46.06681       0.01334185     0.01334185    
46.06697       0.0133419      0.0133419     
46.06713       0.01334194     0.01334194    
46.0673        0.01334199     0.01334199    
46.06746       0.01334203     0.01334203    
46.06762       0.01334208     0.01334208    
46.06778       0.01334212     0.01334212    
46.06794       0.01334217     0.01334217    
46.06811       0.01334221     0.01334221    
46.06827       0.01334226     0.01334226    
46.06843       0.0133423      0.0133423     
46.06859       0.01334235     0.01334235    
46.06875       0.01334239     0.01334239    
46.06891       0.01334244     0.01334244    
46.06908       0.01334248     0.01334248    
46.06924       0.01334253     0.01334253    
46.0694        0.01334257     0.01334257    
46.06956       0.01334262     0.01334262    
46.06972       0.01334266     0.01334266    
46.06989       0.01334271     0.01334271    
46.07005       0.01334275     0.01334275    
46.07021       0.0133428      0.0133428     
46.07037       0.01334284     0.01334284    
46.07053       0.01334289     0.01334289    
46.07069       0.01334293     0.01334293    
46.07086       0.01334298     0.01334298    
46.07102       0.01334302     0.01334302    
46.07118       0.01334307     0.01334307    
46.07134       0.01334311     0.01334311    
46.0715        0.01334316     0.01334316    
46.07166       0.0133432      0.0133432     
46.07182       0.01334325     0.01334325    
46.07199       0.01334329     0.01334329    
46.07215       0.01334334     0.01334334    
46.07231       0.01334338     0.01334338    
46.07247       0.01334343     0.01334343    
46.07263       0.01334347     0.01334347    
46.07279       0.01334352     0.01334352    
46.07295       0.01334356     0.01334356    
46.07311       0.01334361     0.01334361    
46.07327       0.01334365     0.01334365    
46.07343       0.0133437      0.0133437     
46.07359       0.01334374     0.01334374    
46.07375       0.01334379     0.01334379    
46.07391       0.01334383     0.01334383    
46.07407       0.01334388     0.01334388    
46.07423       0.01334392     0.01334392    
46.07439       0.01334397     0.01334397    
46.07455       0.01334401     0.01334401    
46.07471       0.01334406     0.01334406    
46.07487       0.0133441      0.0133441     
46.07503       0.01334415     0.01334415    
46.07519       0.01334419     0.01334419    
46.07535       0.01334424     0.01334424    
46.07551       0.01334428     0.01334428    
46.07566       0.01334433     0.01334433    
46.07582       0.01334437     0.01334437    
46.07598       0.01334442     0.01334442    
46.07614       0.01334446     0.01334446    
46.0763        0.0133445      0.0133445     
46.07645       0.01334455     0.01334455    
46.07661       0.01334459     0.01334459    
46.07677       0.01334464     0.01334464    
46.07692       0.01334468     0.01334468    
46.07708       0.01334473     0.01334473    
46.07724       0.01334477     0.01334477    
46.0774        0.01334482     0.01334482    
46.07755       0.01334486     0.01334486    
46.07771       0.01334491     0.01334491    
46.07786       0.01334495     0.01334495    
46.07802       0.01334499     0.01334499    
46.07818       0.01334504     0.01334504    
46.07833       0.01334508     0.01334508    
46.07849       0.01334513     0.01334513    
46.07864       0.01334517     0.01334517    
46.0788        0.01334522     0.01334522    
46.07896       0.01334526     0.01334526    
46.07911       0.01334531     0.01334531    
46.07927       0.01334535     0.01334535    
46.07942       0.01334539     0.01334539    
46.07958       0.01334544     0.01334544    
46.07973       0.01334548     0.01334548    
46.07989       0.01334553     0.01334553    
46.08004       0.01334557     0.01334557    
46.0802        0.01334562     0.01334562    
46.08035       0.01334566     0.01334566    
46.0805        0.0133457      0.0133457     
46.08066       0.01334575     0.01334575    
46.08081       0.01334579     0.01334579    
46.08097       0.01334584     0.01334584    
46.08112       0.01334588     0.01334588    
46.08127       0.01334592     0.01334592    
46.08143       0.01334597     0.01334597    
46.08158       0.01334601     0.01334601    
46.08174       0.01334606     0.01334606    
46.08189       0.0133461      0.0133461     
46.08204       0.01334615     0.01334615    
46.0822        0.01334619     0.01334619    
46.08235       0.01334623     0.01334623    
46.0825        0.01334628     0.01334628    
46.08265       0.01334632     0.01334632    
46.08281       0.01334637     0.01334637    
46.08296       0.01334641     0.01334641    
46.08311       0.01334645     0.01334645    
46.08327       0.0133465      0.0133465     
46.08342       0.01334654     0.01334654    
46.08357       0.01334658     0.01334658    
46.08372       0.01334663     0.01334663    
46.08387       0.01334667     0.01334667    
46.08403       0.01334671     0.01334671    
46.08418       0.01334675     0.01334675    
46.08433       0.0133468      0.0133468     
46.08448       0.01334684     0.01334684    
46.08463       0.01334688     0.01334688    
46.08478       0.01334693     0.01334693    
46.08494       0.01334697     0.01334697    
46.08509       0.01334701     0.01334701    
46.08524       0.01334706     0.01334706    
46.08539       0.0133471      0.0133471     
46.08554       0.01334714     0.01334714    
46.08569       0.01334718     0.01334718    
46.08584       0.01334723     0.01334723    
46.08599       0.01334727     0.01334727    
46.08615       0.01334731     0.01334731    
46.0863        0.01334736     0.01334736    
46.08645       0.0133474      0.0133474     
46.0866        0.01334744     0.01334744    
46.08675       0.01334748     0.01334748    
46.0869        0.01334753     0.01334753    
46.08705       0.01334757     0.01334757    
46.0872        0.01334761     0.01334761    
46.08735       0.01334765     0.01334765    
46.0875        0.01334769     0.01334769    
46.08765       0.01334774     0.01334774    
46.0878        0.01334778     0.01334778    
46.08795       0.01334782     0.01334782    
46.0881        0.01334786     0.01334786    
46.08825       0.0133479      0.0133479     
46.0884        0.01334795     0.01334795    
46.08855       0.01334799     0.01334799    
46.0887        0.01334803     0.01334803    
46.08885       0.01334807     0.01334807    
46.089         0.01334812     0.01334812    
46.08915       0.01334816     0.01334816    
46.0893        0.0133482      0.0133482     
46.08945       0.01334824     0.01334824    
46.0896        0.01334829     0.01334829    
46.08974       0.01334833     0.01334833    
46.08989       0.01334837     0.01334837    
46.09004       0.01334842     0.01334842    
46.09019       0.01334846     0.01334846    
46.09034       0.0133485      0.0133485     
46.09049       0.01334854     0.01334854    
46.09064       0.01334859     0.01334859    
46.09079       0.01334863     0.01334863    
46.09094       0.01334867     0.01334867    
46.09109       0.01334872     0.01334872    
46.09123       0.01334876     0.01334876    
46.09138       0.0133488      0.0133488     
46.09153       0.01334884     0.01334884    
46.09168       0.01334889     0.01334889    
46.09183       0.01334893     0.01334893    
46.09198       0.01334897     0.01334897    
46.09213       0.01334902     0.01334902    
46.09227       0.01334906     0.01334906    
46.09242       0.0133491      0.0133491     
46.09257       0.01334914     0.01334914    
46.09272       0.01334919     0.01334919    
46.09287       0.01334923     0.01334923    
46.09302       0.01334927     0.01334927    
46.09316       0.01334931     0.01334931    
46.09331       0.01334936     0.01334936    
46.09346       0.0133494      0.0133494     
46.09361       0.01334944     0.01334944    
46.09376       0.01334948     0.01334948    
46.09391       0.01334953     0.01334953    
46.09405       0.01334957     0.01334957    
46.0942        0.01334961     0.01334961    
46.09435       0.01334965     0.01334965    
46.0945        0.0133497      0.0133497     
46.09465       0.01334974     0.01334974    
46.09479       0.01334978     0.01334978    
46.09494       0.01334982     0.01334982    
46.09509       0.01334987     0.01334987    
46.09524       0.01334991     0.01334991    
46.09539       0.01334995     0.01334995    
46.09553       0.01334999     0.01334999    
46.09568       0.01335003     0.01335003    
46.09583       0.01335007     0.01335007    
46.09598       0.01335012     0.01335012    
46.09612       0.01335016     0.01335016    
46.09627       0.0133502      0.0133502     
46.09642       0.01335024     0.01335024    
46.09657       0.01335028     0.01335028    
46.09672       0.01335032     0.01335032    
46.09686       0.01335036     0.01335036    
46.09701       0.01335041     0.01335041    
46.09716       0.01335045     0.01335045    
46.09731       0.01335049     0.01335049    
46.09745       0.01335053     0.01335053    
46.0976        0.01335057     0.01335057    
46.09775       0.01335061     0.01335061    
46.0979        0.01335065     0.01335065    
46.09804       0.01335069     0.01335069    
46.09819       0.01335074     0.01335074    
46.09834       0.01335078     0.01335078    
46.09849       0.01335082     0.01335082    
46.09863       0.01335086     0.01335086    