# Probe 0 (0 0 0)
# Probe 1 (0 0.011 0)
# Time         0              1             
46             6.517429e-05   6.517429e-05  
46.00014       6.517604e-05   6.517604e-05  
46.00027       6.517779e-05   6.517779e-05  
46.00041       6.517955e-05   6.517955e-05  
46.00054       6.51813e-05    6.51813e-05   
46.00068       6.518306e-05   6.518306e-05  
46.00081       6.518481e-05   6.518481e-05  
46.00095       6.518657e-05   6.518657e-05  
46.00108       6.518833e-05   6.518833e-05  
46.00122       6.519009e-05   6.519009e-05  
46.00135       6.519184e-05   6.519184e-05  
46.00148       6.519361e-05   6.519361e-05  
46.00162       6.519537e-05   6.519537e-05  
46.00175       6.519713e-05   6.519713e-05  
46.00188       6.519889e-05   6.519889e-05  
46.00202       6.520065e-05   6.520065e-05  
46.00215       6.520242e-05   6.520242e-05  
46.00228       6.520418e-05   6.520418e-05  
46.00241       6.520595e-05   6.520595e-05  
46.00254       6.520772e-05   6.520772e-05  
46.00267       6.520949e-05   6.520949e-05  
46.00281       6.521125e-05   6.521125e-05  
46.00294       6.521302e-05   6.521302e-05  
46.00307       6.52148e-05    6.52148e-05   
46.0032        6.521657e-05   6.521657e-05  
46.00333       6.521834e-05   6.521834e-05  
46.00346       6.522012e-05   6.522012e-05  
46.00359       6.522189e-05   6.522189e-05  
46.00371       6.522367e-05   6.522367e-05  
46.00384       6.522545e-05   6.522545e-05  
46.00397       6.522722e-05   6.522722e-05  
46.0041        6.5229e-05     6.5229e-05    
46.00423       6.523078e-05   6.523078e-05  
46.00436       6.523257e-05   6.523257e-05  
46.00449       6.523435e-05   6.523435e-05  
46.00461       6.523613e-05   6.523613e-05  
46.00474       6.523792e-05   6.523792e-05  
46.00487       6.523971e-05   6.523971e-05  
46.005         6.524149e-05   6.524149e-05  
46.00512       6.524328e-05   6.524328e-05  
46.00525       6.524507e-05   6.524507e-05  
46.00538       6.524686e-05   6.524686e-05  
46.0055        6.524866e-05   6.524866e-05  
46.00563       6.525045e-05   6.525045e-05  
46.00575       6.525225e-05   6.525225e-05  
46.00588       6.525404e-05   6.525404e-05  
46.00601       6.525584e-05   6.525584e-05  
46.00613       6.525764e-05   6.525764e-05  
46.00626       6.525944e-05   6.525944e-05  
46.00638       6.526124e-05   6.526124e-05  
46.00651       6.526305e-05   6.526305e-05  
46.00663       6.526485e-05   6.526485e-05  
46.00676       6.526666e-05   6.526666e-05  
46.00688       6.526847e-05   6.526847e-05  
46.00701       6.527028e-05   6.527028e-05  
46.00713       6.527209e-05   6.527209e-05  
46.00726       6.52739e-05    6.52739e-05   
46.00738       6.527571e-05   6.527571e-05  
46.0075        6.527753e-05   6.527753e-05  
46.00763       6.527935e-05   6.527935e-05  
46.00775       6.528117e-05   6.528117e-05  
46.00788       6.528299e-05   6.528299e-05  
46.008         6.528481e-05   6.528481e-05  
46.00812       6.528663e-05   6.528663e-05  
46.00825       6.528846e-05   6.528846e-05  
46.00837       6.529029e-05   6.529029e-05  
46.00849       6.529212e-05   6.529212e-05  
46.00862       6.529395e-05   6.529395e-05  
46.00874       6.529578e-05   6.529578e-05  
46.00886       6.529762e-05   6.529762e-05  
46.00898       6.529946e-05   6.529946e-05  
46.00911       6.53013e-05    6.53013e-05   
46.00923       6.530314e-05   6.530314e-05  
46.00935       6.530498e-05   6.530498e-05  
46.00948       6.530683e-05   6.530683e-05  
46.0096        6.530868e-05   6.530868e-05  
46.00972       6.531053e-05   6.531053e-05  
46.00984       6.531238e-05   6.531238e-05  
46.00997       6.531424e-05   6.531424e-05  
46.01009       6.53161e-05    6.53161e-05   
46.01021       6.531796e-05   6.531796e-05  
46.01033       6.531982e-05   6.531982e-05  
46.01045       6.532169e-05   6.532169e-05  
46.01058       6.532356e-05   6.532356e-05  
46.0107        6.532543e-05   6.532543e-05  
46.01082       6.53273e-05    6.53273e-05   
46.01094       6.532918e-05   6.532918e-05  
46.01107       6.533106e-05   6.533106e-05  
46.01119       6.533294e-05   6.533294e-05  
46.01131       6.533483e-05   6.533483e-05  
46.01143       6.533672e-05   6.533672e-05  
46.01155       6.533861e-05   6.533861e-05  
46.01168       6.534051e-05   6.534051e-05  
46.0118        6.534241e-05   6.534241e-05  
46.01192       6.534431e-05   6.534431e-05  
46.01204       6.534622e-05   6.534622e-05  
46.01216       6.534813e-05   6.534813e-05  
46.01229       6.535004e-05   6.535004e-05  
46.01241       6.535196e-05   6.535196e-05  
46.01253       6.535388e-05   6.535388e-05  
46.01265       6.53558e-05    6.53558e-05   
46.01277       6.535773e-05   6.535773e-05  
46.0129        6.535966e-05   6.535966e-05  
46.01302       6.536159e-05   6.536159e-05  
46.01314       6.536353e-05   6.536353e-05  
46.01326       6.536547e-05   6.536547e-05  
46.01339       6.536742e-05   6.536742e-05  
46.01351       6.536937e-05   6.536937e-05  
46.01363       6.537132e-05   6.537132e-05  
46.01375       6.537328e-05   6.537328e-05  
46.01388       6.537524e-05   6.537524e-05  
46.014         6.537721e-05   6.537721e-05  
46.01412       6.537918e-05   6.537918e-05  
46.01424       6.538115e-05   6.538115e-05  
46.01437       6.538313e-05   6.538313e-05  
46.01449       6.538511e-05   6.538511e-05  
46.01461       6.538709e-05   6.538709e-05  
46.01473       6.538908e-05   6.538908e-05  
46.01486       6.539108e-05   6.539108e-05  
46.01498       6.539308e-05   6.539308e-05  
46.0151        6.539508e-05   6.539508e-05  
46.01523       6.539709e-05   6.539709e-05  
46.01535       6.53991e-05    6.53991e-05   
46.01547       6.540112e-05   6.540112e-05  
46.0156        6.540314e-05   6.540314e-05  
46.01572       6.540516e-05   6.540516e-05  
46.01585       6.540719e-05   6.540719e-05  
46.01597       6.540923e-05   6.540923e-05  
46.01609       6.541127e-05   6.541127e-05  
46.01622       6.541331e-05   6.541331e-05  
46.01634       6.541536e-05   6.541536e-05  
46.01647       6.541742e-05   6.541742e-05  
46.01659       6.541948e-05   6.541948e-05  
46.01672       6.542154e-05   6.542154e-05  
46.01684       6.542361e-05   6.542361e-05  
46.01697       6.542568e-05   6.542568e-05  
46.01709       6.542776e-05   6.542776e-05  
46.01722       6.542984e-05   6.542984e-05  
46.01734       6.543193e-05   6.543193e-05  
46.01747       6.543402e-05   6.543402e-05  
46.01759       6.543612e-05   6.543612e-05  
46.01772       6.543823e-05   6.543823e-05  
46.01784       6.544033e-05   6.544033e-05  
46.01797       6.544245e-05   6.544245e-05  
46.0181        6.544457e-05   6.544457e-05  
46.01822       6.544669e-05   6.544669e-05  
46.01835       6.544883e-05   6.544883e-05  
46.01848       6.545096e-05   6.545096e-05  
46.0186        6.54531e-05    6.54531e-05   
46.01873       6.545525e-05   6.545525e-05  
46.01886       6.545741e-05   6.545741e-05  
46.01898       6.545957e-05   6.545957e-05  
46.01911       6.546173e-05   6.546173e-05  
46.01924       6.54639e-05    6.54639e-05   
46.01937       6.546608e-05   6.546608e-05  
46.0195        6.546826e-05   6.546826e-05  
46.01962       6.547045e-05   6.547045e-05  
46.01975       6.547265e-05   6.547265e-05  
46.01988       6.547485e-05   6.547485e-05  
46.02001       6.547706e-05   6.547706e-05  
46.02014       6.547927e-05   6.547927e-05  
46.02027       6.548149e-05   6.548149e-05  
46.0204        6.548371e-05   6.548371e-05  
46.02053       6.548595e-05   6.548595e-05  
46.02066       6.548819e-05   6.548819e-05  
46.02079       6.549043e-05   6.549043e-05  
46.02092       6.549269e-05   6.549269e-05  
46.02105       6.549494e-05   6.549494e-05  
46.02118       6.549721e-05   6.549721e-05  
46.02131       6.549948e-05   6.549948e-05  
46.02144       6.550176e-05   6.550176e-05  
46.02158       6.550405e-05   6.550405e-05  
46.02171       6.550634e-05   6.550634e-05  
46.02184       6.550865e-05   -1.797693e+307
46.02197       6.551095e-05   -1.797693e+307
46.02211       6.551327e-05   -1.797693e+307
46.02224       6.551559e-05   -1.797693e+307
46.02237       6.551792e-05   -1.797693e+307
46.02251       6.552026e-05   -1.797693e+307
46.02264       6.552261e-05   -1.797693e+307
46.02277       6.552496e-05   -1.797693e+307
46.02291       6.552732e-05   -1.797693e+307
46.02304       6.552969e-05   -1.797693e+307
46.02318       6.553207e-05   -1.797693e+307
46.02331       6.553446e-05   -1.797693e+307
46.02345       6.553685e-05   -1.797693e+307
46.02359       6.553926e-05   -1.797693e+307
46.02372       6.554167e-05   -1.797693e+307
46.02386       6.554409e-05   -1.797693e+307
46.024         6.554652e-05   -1.797693e+307
46.02413       6.554896e-05   -1.797693e+307
46.02427       6.555141e-05   -1.797693e+307
46.02441       6.555387e-05   -1.797693e+307
46.02455       6.555634e-05   -1.797693e+307
46.02469       6.555881e-05   -1.797693e+307
46.02483       6.55613e-05    -1.797693e+307
46.02497       6.556379e-05   -1.797693e+307
46.02511       6.55663e-05    -1.797693e+307
46.02525       6.556882e-05   -1.797693e+307
46.02539       6.557134e-05   -1.797693e+307
46.02553       6.557388e-05   -1.797693e+307
46.02567       6.557643e-05   -1.797693e+307
46.02581       6.557899e-05   -1.797693e+307
46.02595       6.558155e-05   -1.797693e+307
46.0261        6.558413e-05   -1.797693e+307
46.02624       6.558672e-05   -1.797693e+307
46.02638       6.558932e-05   -1.797693e+307
46.02653       6.559193e-05   -1.797693e+307
46.02667       6.559455e-05   -1.797693e+307
46.02682       6.559718e-05   -1.797693e+307
46.02696       6.559983e-05   -1.797693e+307
46.02711       6.560248e-05   -1.797693e+307
46.02726       6.560515e-05   -1.797693e+307
46.0274        6.560783e-05   -1.797693e+307
46.02755       6.561052e-05   -1.797693e+307
46.0277        6.561322e-05   -1.797693e+307
46.02785       6.561593e-05   -1.797693e+307
46.028         6.561866e-05   -1.797693e+307
46.02815       6.56214e-05    -1.797693e+307
46.0283        6.562415e-05   -1.797693e+307
46.02845       6.562692e-05   -1.797693e+307
46.0286        6.56297e-05    -1.797693e+307
46.02875       6.563249e-05   -1.797693e+307
46.0289        6.56353e-05    -1.797693e+307
46.02905       6.563812e-05   -1.797693e+307
46.02921       6.564096e-05   -1.797693e+307
46.02936       6.564381e-05   -1.797693e+307
46.02952       6.564667e-05   -1.797693e+307
46.02967       6.564955e-05   -1.797693e+307
46.02983       6.565245e-05   -1.797693e+307
46.02999       6.565536e-05   -1.797693e+307
46.03014       6.565828e-05   -1.797693e+307
46.0303        6.566123e-05   -1.797693e+307
46.03046       6.566419e-05   -1.797693e+307
46.03062       6.566716e-05   -1.797693e+307
46.03078       6.567016e-05   -1.797693e+307
46.03094       6.567317e-05   -1.797693e+307
46.0311        6.567619e-05   -1.797693e+307
46.03127       6.567924e-05   -1.797693e+307
46.03143       6.568231e-05   -1.797693e+307
46.03159       6.568539e-05   -1.797693e+307
46.03176       6.56885e-05    -1.797693e+307
46.03193       6.569162e-05   -1.797693e+307
46.03209       6.569477e-05   -1.797693e+307
46.03226       6.569794e-05   -1.797693e+307
46.03243       6.570112e-05   -1.797693e+307
46.0326        6.570434e-05   -1.797693e+307
46.03277       6.570756e-05   -1.797693e+307
46.03294       6.571078e-05   -1.797693e+307
46.03311       6.571401e-05   -1.797693e+307
46.03328       6.571724e-05   -1.797693e+307
46.03345       6.572047e-05   -1.797693e+307
46.03362       6.572371e-05   -1.797693e+307
46.03379       6.572695e-05   -1.797693e+307
46.03396       6.573019e-05   -1.797693e+307
46.03413       6.573343e-05   -1.797693e+307
46.0343        6.573667e-05   -1.797693e+307
46.03447       6.573992e-05   -1.797693e+307
46.03464       6.574317e-05   -1.797693e+307
46.03481       6.574642e-05   -1.797693e+307
46.03498       6.574968e-05   -1.797693e+307
46.03515       6.575294e-05   -1.797693e+307
46.03532       6.57562e-05    -1.797693e+307
46.03549       6.575946e-05   -1.797693e+307
46.03566       6.576273e-05   -1.797693e+307
46.03583       6.5766e-05     -1.797693e+307
46.036         6.576928e-05   -1.797693e+307
46.03617       6.577256e-05   -1.797693e+307
46.03634       6.577584e-05   -1.797693e+307
46.03651       6.577913e-05   -1.797693e+307
46.03668       6.578242e-05   -1.797693e+307
46.03685       6.578572e-05   -1.797693e+307
46.03702       6.578902e-05   -1.797693e+307
46.03719       6.579233e-05   -1.797693e+307
46.03736       6.579564e-05   -1.797693e+307
46.03753       6.579896e-05   -1.797693e+307
46.0377        6.580228e-05   -1.797693e+307
46.03787       6.580561e-05   -1.797693e+307
46.03804       6.580895e-05   -1.797693e+307
46.03821       6.581229e-05   -1.797693e+307
46.03838       6.581563e-05   -1.797693e+307
46.03856       6.581898e-05   -1.797693e+307
46.03873       6.582233e-05   -1.797693e+307
46.0389        6.582568e-05   -1.797693e+307
46.03907       6.582903e-05   -1.797693e+307
46.03924       6.583237e-05   -1.797693e+307
46.03941       6.583572e-05   -1.797693e+307
46.03958       6.583906e-05   -1.797693e+307
46.03975       6.58424e-05    -1.797693e+307
46.03992       6.584574e-05   -1.797693e+307
46.04009       6.584907e-05   -1.797693e+307
46.04025       6.585241e-05   -1.797693e+307
46.04042       6.585574e-05   -1.797693e+307
46.04059       6.585907e-05   -1.797693e+307
46.04076       6.58624e-05    -1.797693e+307
46.04093       6.586573e-05   6.586573e-05  
46.04109       6.586906e-05   6.586906e-05  
46.04126       6.587238e-05   6.587238e-05  
46.04143       6.58757e-05    6.58757e-05   
46.04159       6.587903e-05   6.587903e-05  
46.04176       6.588235e-05   6.588235e-05  
46.04193       6.588567e-05   6.588567e-05  
46.04209       6.588899e-05   6.588899e-05  
46.04226       6.589231e-05   6.589231e-05  
46.04243       6.589562e-05   6.589562e-05  
46.04259       6.589894e-05   6.589894e-05  
46.04276       6.590226e-05   6.590226e-05  
46.04292       6.590557e-05   6.590557e-05  
46.04309       6.590888e-05   6.590888e-05  
46.04325       6.59122e-05    6.59122e-05   
46.04342       6.591551e-05   6.591551e-05  
46.04358       6.591882e-05   6.591882e-05  
46.04374       6.592212e-05   6.592212e-05  
46.04391       6.592543e-05   6.592543e-05  
46.04407       6.592874e-05   6.592874e-05  
46.04424       6.593205e-05   6.593205e-05  
46.0444        6.593535e-05   6.593535e-05  
46.04456       6.593865e-05   6.593865e-05  
46.04473       6.594196e-05   6.594196e-05  
46.04489       6.594526e-05   6.594526e-05  
46.04505       6.594856e-05   6.594856e-05  
46.04522       6.595187e-05   6.595187e-05  
46.04538       6.595517e-05   6.595517e-05  
46.04554       6.595847e-05   6.595847e-05  
46.0457        6.596177e-05   6.596177e-05  
46.04587       6.596507e-05   6.596507e-05  
46.04603       6.596836e-05   6.596836e-05  
46.04619       6.597166e-05   6.597166e-05  
46.04635       6.597496e-05   6.597496e-05  
46.04651       6.597826e-05   6.597826e-05  
46.04668       6.598155e-05   6.598155e-05  
46.04684       6.598485e-05   6.598485e-05  
46.047         6.598815e-05   6.598815e-05  
46.04716       6.599144e-05   6.599144e-05  
46.04732       6.599474e-05   6.599474e-05  
46.04748       6.599803e-05   6.599803e-05  
46.04764       6.600133e-05   6.600133e-05  
46.0478        6.600462e-05   6.600462e-05  
46.04797       6.600792e-05   6.600792e-05  
46.04813       6.601121e-05   6.601121e-05  
46.04829       6.601451e-05   6.601451e-05  
46.04845       6.60178e-05    6.60178e-05   
46.04861       6.602109e-05   6.602109e-05  
46.04877       6.602439e-05   6.602439e-05  
46.04893       6.602768e-05   6.602768e-05  
46.04909       6.603098e-05   6.603098e-05  
46.04925       6.603427e-05   6.603427e-05  
46.04941       6.603756e-05   6.603756e-05  
46.04957       6.604086e-05   6.604086e-05  
46.04973       6.604415e-05   6.604415e-05  
46.04989       6.604744e-05   6.604744e-05  
46.05005       6.605074e-05   6.605074e-05  
46.05021       6.605403e-05   6.605403e-05  
46.05037       6.605732e-05   6.605732e-05  
46.05053       6.606062e-05   6.606062e-05  
46.05069       6.606391e-05   6.606391e-05  
46.05085       6.60672e-05    6.60672e-05   
46.051         6.607049e-05   6.607049e-05  
46.05116       6.607378e-05   6.607378e-05  
46.05132       6.607707e-05   6.607707e-05  
46.05148       6.608036e-05   6.608036e-05  
46.05164       6.608365e-05   6.608365e-05  
46.0518        6.608694e-05   6.608694e-05  
46.05196       6.609023e-05   6.609023e-05  
46.05212       6.609351e-05   6.609351e-05  
46.05228       6.60968e-05    6.60968e-05   
46.05244       6.610008e-05   6.610008e-05  
46.0526        6.610337e-05   6.610337e-05  
46.05275       6.610665e-05   6.610665e-05  
46.05291       6.610994e-05   6.610994e-05  
46.05307       6.611322e-05   6.611322e-05  
46.05323       6.61165e-05    6.61165e-05   
46.05339       6.611978e-05   6.611978e-05  
46.05355       6.612306e-05   6.612306e-05  
46.05371       6.612634e-05   6.612634e-05  
46.05387       6.612961e-05   6.612961e-05  
46.05402       6.613289e-05   6.613289e-05  
46.05418       6.613616e-05   6.613616e-05  
46.05434       6.613943e-05   6.613943e-05  
46.0545        6.61427e-05    6.61427e-05   
46.05466       6.614597e-05   6.614597e-05  
46.05482       6.614924e-05   6.614924e-05  
46.05497       6.615251e-05   6.615251e-05  
46.05513       6.615577e-05   6.615577e-05  
46.05529       6.615904e-05   6.615904e-05  
46.05545       6.61623e-05    6.61623e-05   
46.05561       6.616556e-05   6.616556e-05  
46.05577       6.616883e-05   6.616883e-05  
46.05592       6.617208e-05   6.617208e-05  
46.05608       6.617534e-05   6.617534e-05  
46.05624       6.61786e-05    6.61786e-05   
46.0564        6.618186e-05   6.618186e-05  
46.05656       6.618511e-05   6.618511e-05  
46.05672       6.618836e-05   6.618836e-05  
46.05688       6.619161e-05   6.619161e-05  
46.05703       6.619486e-05   6.619486e-05  
46.05719       6.619811e-05   6.619811e-05  
46.05735       6.620136e-05   6.620136e-05  
46.05751       6.620461e-05   6.620461e-05  
46.05767       6.620785e-05   6.620785e-05  
46.05783       6.621109e-05   6.621109e-05  
46.05799       6.621433e-05   6.621433e-05  
46.05815       6.621757e-05   6.621757e-05  
46.05831       6.622081e-05   6.622081e-05  
46.05846       6.622405e-05   6.622405e-05  
46.05862       6.622728e-05   6.622728e-05  
46.05878       6.623052e-05   6.623052e-05  
46.05894       6.623375e-05   6.623375e-05  
46.0591        6.623698e-05   6.623698e-05  
46.05926       6.624021e-05   6.624021e-05  
46.05942       6.624344e-05   6.624344e-05  
46.05958       6.624667e-05   6.624667e-05  
46.05974       6.624989e-05   6.624989e-05  
46.0599        6.625311e-05   6.625311e-05  
46.06006       6.625634e-05   6.625634e-05  
46.06022       6.625955e-05   6.625955e-05  
46.06038       6.626277e-05   6.626277e-05  
46.06054       6.626598e-05   6.626598e-05  
46.0607        6.62692e-05    6.62692e-05   
46.06086       6.627241e-05   6.627241e-05  
46.06102       6.627562e-05   6.627562e-05  
46.06118       6.627882e-05   6.627882e-05  
46.06134       6.628202e-05   6.628202e-05  
46.0615        6.628523e-05   6.628523e-05  
46.06166       6.628843e-05   6.628843e-05  
46.06182       6.629162e-05   6.629162e-05  
46.06198       6.629481e-05   6.629481e-05  
46.06214       6.629801e-05   6.629801e-05  
46.0623        6.630119e-05   6.630119e-05  
46.06246       6.630438e-05   6.630438e-05  
46.06262       6.630756e-05   6.630756e-05  
46.06278       6.631074e-05   6.631074e-05  
46.06294       6.631391e-05   6.631391e-05  
46.0631        6.631708e-05   6.631708e-05  
46.06326       6.632025e-05   6.632025e-05  
46.06342       6.632341e-05   6.632341e-05  
46.06358       6.632658e-05   6.632658e-05  
46.06375       6.632973e-05   6.632973e-05  
46.06391       6.633289e-05   6.633289e-05  
46.06407       6.633604e-05   6.633604e-05  
46.06423       6.633918e-05   6.633918e-05  
46.06439       6.634233e-05   6.634233e-05  
46.06455       6.634546e-05   6.634546e-05  
46.06471       6.63486e-05    6.63486e-05   
46.06487       6.635173e-05   6.635173e-05  
46.06503       6.635486e-05   6.635486e-05  
46.0652        6.635798e-05   6.635798e-05  
46.06536       6.63611e-05    6.63611e-05   
46.06552       6.636421e-05   6.636421e-05  
46.06568       6.636733e-05   6.636733e-05  
46.06584       6.637043e-05   6.637043e-05  
46.066         6.637353e-05   6.637353e-05  
46.06616       6.637663e-05   6.637663e-05  
46.06633       6.637973e-05   6.637973e-05  
46.06649       6.638282e-05   6.638282e-05  
46.06665       6.63859e-05    6.63859e-05   
46.06681       6.638898e-05   6.638898e-05  
46.06697       6.639206e-05   6.639206e-05  
46.06713       6.639513e-05   6.639513e-05  
46.0673        6.63982e-05    6.63982e-05   
46.06746       6.640126e-05   6.640126e-05  
46.06762       6.640432e-05   6.640432e-05  
46.06778       6.640737e-05   6.640737e-05  
46.06794       6.641041e-05   6.641041e-05  
46.06811       6.641346e-05   6.641346e-05  
46.06827       6.641649e-05   6.641649e-05  
46.06843       6.641952e-05   6.641952e-05  
46.06859       6.642255e-05   6.642255e-05  
46.06875       6.642557e-05   6.642557e-05  
46.06891       6.642858e-05   6.642858e-05  
46.06908       6.643159e-05   6.643159e-05  
46.06924       6.643459e-05   6.643459e-05  
46.0694        6.643759e-05   6.643759e-05  
46.06956       6.644058e-05   6.644058e-05  
46.06972       6.644357e-05   6.644357e-05  
46.06989       6.644655e-05   6.644655e-05  
46.07005       6.644952e-05   6.644952e-05  
46.07021       6.645249e-05   6.645249e-05  
46.07037       6.645545e-05   6.645545e-05  
46.07053       6.64584e-05    6.64584e-05   
46.07069       6.646135e-05   6.646135e-05  
46.07086       6.64643e-05    6.64643e-05   
46.07102       6.646723e-05   6.646723e-05  
46.07118       6.647016e-05   6.647016e-05  
46.07134       6.647308e-05   6.647308e-05  
46.0715        6.6476e-05     6.6476e-05    
46.07166       6.64789e-05    6.64789e-05   
46.07182       6.648181e-05   6.648181e-05  
46.07199       6.64847e-05    6.64847e-05   
46.07215       6.648759e-05   6.648759e-05  
46.07231       6.649047e-05   6.649047e-05  
46.07247       6.649334e-05   6.649334e-05  
46.07263       6.649621e-05   6.649621e-05  
46.07279       6.649907e-05   6.649907e-05  
46.07295       6.650192e-05   6.650192e-05  
46.07311       6.650476e-05   6.650476e-05  
46.07327       6.65076e-05    6.65076e-05   
46.07343       6.651042e-05   6.651042e-05  
46.07359       6.651324e-05   6.651324e-05  
46.07375       6.651605e-05   6.651605e-05  
46.07391       6.651885e-05   6.651885e-05  
46.07407       6.652164e-05   6.652164e-05  
46.07423       6.652442e-05   6.652442e-05  
46.07439       6.652719e-05   6.652719e-05  
46.07455       6.652995e-05   6.652995e-05  
46.07471       6.653271e-05   6.653271e-05  
46.07487       6.653545e-05   6.653545e-05  
46.07503       6.653819e-05   6.653819e-05  
46.07519       6.654092e-05   6.654092e-05  
46.07535       6.654364e-05   6.654364e-05  
46.07551       6.654635e-05   6.654635e-05  
46.07566       6.654906e-05   6.654906e-05  
46.07582       6.655175e-05   6.655175e-05  
46.07598       6.655444e-05   6.655444e-05  
46.07614       6.655712e-05   6.655712e-05  
46.0763        6.655978e-05   6.655978e-05  
46.07645       6.656244e-05   6.656244e-05  
46.07661       6.65651e-05    6.65651e-05   
46.07677       6.656774e-05   6.656774e-05  
46.07692       6.657037e-05   6.657037e-05  
46.07708       6.6573e-05     6.6573e-05    
46.07724       6.657562e-05   6.657562e-05  
46.0774        6.657823e-05   6.657823e-05  
46.07755       6.658083e-05   6.658083e-05  
46.07771       6.658342e-05   6.658342e-05  
46.07786       6.658601e-05   6.658601e-05  
46.07802       6.658858e-05   6.658858e-05  
46.07818       6.659115e-05   6.659115e-05  
46.07833       6.659371e-05   6.659371e-05  
46.07849       6.659626e-05   6.659626e-05  
46.07864       6.65988e-05    6.65988e-05   
46.0788        6.660134e-05   6.660134e-05  
46.07896       6.660387e-05   6.660387e-05  
46.07911       6.660639e-05   6.660639e-05  
46.07927       6.66089e-05    6.66089e-05   
46.07942       6.66114e-05    6.66114e-05   
46.07958       6.66139e-05    6.66139e-05   
46.07973       6.661639e-05   6.661639e-05  
46.07989       6.661887e-05   6.661887e-05  
46.08004       6.662135e-05   6.662135e-05  
46.0802        6.662381e-05   6.662381e-05  
46.08035       6.662627e-05   6.662627e-05  
46.0805        6.662872e-05   6.662872e-05  
46.08066       6.663116e-05   6.663116e-05  
46.08081       6.66336e-05    6.66336e-05   
46.08097       6.663603e-05   6.663603e-05  
46.08112       6.663845e-05   6.663845e-05  
46.08127       6.664086e-05   6.664086e-05  
46.08143       6.664326e-05   6.664326e-05  
46.08158       6.664566e-05   6.664566e-05  
46.08174       6.664805e-05   6.664805e-05  
46.08189       6.665044e-05   6.665044e-05  
46.08204       6.665282e-05   6.665282e-05  
46.0822        6.665518e-05   6.665518e-05  
46.08235       6.665755e-05   6.665755e-05  
46.0825        6.66599e-05    6.66599e-05   
46.08265       6.666225e-05   6.666225e-05  
46.08281       6.666459e-05   6.666459e-05  
46.08296       6.666693e-05   6.666693e-05  
46.08311       6.666926e-05   6.666926e-05  
46.08327       6.667158e-05   6.667158e-05  
46.08342       6.667389e-05   6.667389e-05  
46.08357       6.66762e-05    6.66762e-05   
46.08372       6.667851e-05   6.667851e-05  
46.08387       6.66808e-05    6.66808e-05   
46.08403       6.668309e-05   6.668309e-05  
46.08418       6.668537e-05   6.668537e-05  
46.08433       6.668765e-05   6.668765e-05  
46.08448       6.668992e-05   6.668992e-05  
46.08463       6.669218e-05   6.669218e-05  
46.08478       6.669444e-05   6.669444e-05  
46.08494       6.669669e-05   6.669669e-05  
46.08509       6.669893e-05   6.669893e-05  
46.08524       6.670117e-05   6.670117e-05  
46.08539       6.67034e-05    6.67034e-05   
46.08554       6.670563e-05   6.670563e-05  
46.08569       6.670785e-05   6.670785e-05  
46.08584       6.671006e-05   6.671006e-05  
46.08599       6.671227e-05   6.671227e-05  
46.08615       6.671448e-05   6.671448e-05  
46.0863        6.671667e-05   6.671667e-05  
46.08645       6.671887e-05   6.671887e-05  
46.0866        6.672105e-05   6.672105e-05  
46.08675       6.672323e-05   6.672323e-05  
46.0869        6.67254e-05    6.67254e-05   
46.08705       6.672757e-05   6.672757e-05  
46.0872        6.672974e-05   6.672974e-05  
46.08735       6.673189e-05   6.673189e-05  
46.0875        6.673404e-05   6.673404e-05  
46.08765       6.673619e-05   6.673619e-05  
46.0878        6.673833e-05   6.673833e-05  
46.08795       6.674047e-05   6.674047e-05  
46.0881        6.67426e-05    6.67426e-05   
46.08825       6.674472e-05   6.674472e-05  
46.0884        6.674684e-05   6.674684e-05  
46.08855       6.674896e-05   6.674896e-05  
46.0887        6.675107e-05   6.675107e-05  
46.08885       6.675317e-05   6.675317e-05  
46.089         6.675527e-05   6.675527e-05  
46.08915       6.675736e-05   6.675736e-05  
46.0893        6.675945e-05   6.675945e-05  
46.08945       6.676154e-05   6.676154e-05  
46.0896        6.676362e-05   6.676362e-05  
46.08974       6.676569e-05   6.676569e-05  
46.08989       6.676776e-05   6.676776e-05  
46.09004       6.676983e-05   6.676983e-05  
46.09019       6.677189e-05   6.677189e-05  
46.09034       6.677394e-05   6.677394e-05  
46.09049       6.677599e-05   6.677599e-05  
46.09064       6.677804e-05   6.677804e-05  
46.09079       6.678008e-05   6.678008e-05  
46.09094       6.678212e-05   6.678212e-05  
46.09109       6.678415e-05   6.678415e-05  
46.09123       6.678618e-05   6.678618e-05  
46.09138       6.67882e-05    6.67882e-05   
46.09153       6.679022e-05   6.679022e-05  
46.09168       6.679223e-05   6.679223e-05  
46.09183       6.679424e-05   6.679424e-05  
46.09198       6.679625e-05   6.679625e-05  
46.09213       6.679825e-05   6.679825e-05  
46.09227       6.680024e-05   6.680024e-05  
46.09242       6.680223e-05   6.680223e-05  
46.09257       6.680422e-05   6.680422e-05  
46.09272       6.680621e-05   6.680621e-05  
46.09287       6.680819e-05   6.680819e-05  
46.09302       6.681016e-05   6.681016e-05  
46.09316       6.681213e-05   6.681213e-05  
46.09331       6.68141e-05    6.68141e-05   
46.09346       6.681606e-05   6.681606e-05  
46.09361       6.681802e-05   6.681802e-05  
46.09376       6.681997e-05   6.681997e-05  
46.09391       6.682192e-05   6.682192e-05  
46.09405       6.682387e-05   6.682387e-05  
46.0942        6.682581e-05   6.682581e-05  
46.09435       6.682775e-05   6.682775e-05  
46.0945        6.682968e-05   6.682968e-05  
46.09465       6.683161e-05   6.683161e-05  
46.09479       6.683354e-05   6.683354e-05  
46.09494       6.683546e-05   6.683546e-05  
46.09509       6.683738e-05   6.683738e-05  
46.09524       6.683929e-05   6.683929e-05  
46.09539       6.68412e-05    6.68412e-05   
46.09553       6.684311e-05   6.684311e-05  
46.09568       6.684502e-05   6.684502e-05  
46.09583       6.684692e-05   6.684692e-05  
46.09598       6.684881e-05   6.684881e-05  
46.09612       6.685071e-05   6.685071e-05  
46.09627       6.685259e-05   6.685259e-05  
46.09642       6.685448e-05   6.685448e-05  
46.09657       6.685636e-05   6.685636e-05  
46.09672       6.685824e-05   6.685824e-05  
46.09686       6.686012e-05   6.686012e-05  
46.09701       6.686199e-05   6.686199e-05  
46.09716       6.686385e-05   6.686385e-05  
46.09731       6.686572e-05   6.686572e-05  
46.09745       6.686758e-05   6.686758e-05  
46.0976        6.686944e-05   6.686944e-05  
46.09775       6.687129e-05   6.687129e-05  
46.0979        6.687314e-05   6.687314e-05  
46.09804       6.687499e-05   6.687499e-05  
46.09819       6.687683e-05   6.687683e-05  
46.09834       6.687867e-05   6.687867e-05  
46.09849       6.688051e-05   6.688051e-05  
46.09863       6.688234e-05   6.688234e-05  