# Probe 0 (0 0 0)
# Probe 1 (0 0.011 0)
# Time         0              1             
0              0              0             
1.199999e-06   4.377198e-05   4.377198e-05  
2.639996e-06   5.922081e-05   5.922081e-05  
4.367991e-06   6.724923e-05   6.724923e-05  
6.441582e-06   7.219109e-05   7.219109e-05  
8.92989e-06    7.553651e-05   7.553651e-05  
1.191586e-05   7.794206e-05   7.794206e-05  
1.549901e-05   7.974449e-05   7.974449e-05  
1.97988e-05    8.11354e-05    8.11354e-05   
2.495853e-05   8.223242e-05   8.223242e-05  
3.115017e-05   8.311206e-05   8.311206e-05  
3.858013e-05   8.382645e-05   8.382645e-05  
4.749602e-05   8.441243e-05   8.441243e-05  
5.819505e-05   8.489684e-05   8.489684e-05  
7.103374e-05   8.529974e-05   8.529974e-05  
8.644002e-05   8.563645e-05   8.563645e-05  
0.0001049275   8.591884e-05   8.591884e-05  
0.0001271124   8.615629e-05   8.615629e-05  
0.0001537338   8.635626e-05   8.635626e-05  
0.0001856788   8.652475e-05   8.652475e-05  
0.0002240123   8.666665e-05   8.666665e-05  
0.0002700107   8.67859e-05    8.67859e-05   
0.0003252078   8.688574e-05   8.688574e-05  
0.0003914421   8.69688e-05    8.69688e-05   
0.000470707    8.703708e-05   8.703708e-05  
0.0005632988   8.70915e-05    8.70915e-05   
0.000669588    8.713371e-05   8.713371e-05  
0.0007900037   8.716545e-05   8.716545e-05  
0.0009250321   8.718827e-05   8.718827e-05  
0.001075179    8.720347e-05   8.720347e-05  
0.001231799    8.721194e-05   8.721194e-05  
0.001393255    8.721525e-05   8.721525e-05  
0.001554581    8.721468e-05   8.721468e-05  
0.001715699    8.721124e-05   8.721124e-05  
0.001876608    8.720562e-05   8.720562e-05  
0.002037285    8.719831e-05   8.719831e-05  
0.002197755    8.718966e-05   8.718966e-05  
0.002358045    8.717994e-05   8.717994e-05  
0.002518205    8.716934e-05   8.716934e-05  
0.002678263    8.715801e-05   8.715801e-05  
0.002838244    8.714608e-05   8.714608e-05  
0.002998174    8.713362e-05   8.713362e-05  
0.003158078    8.712073e-05   8.712073e-05  
0.003317982    8.710746e-05   8.710746e-05  
0.003477886    8.709385e-05   8.709385e-05  
0.003637842    8.707995e-05   8.707995e-05  
0.003797874    8.70658e-05    8.70658e-05   
0.003958035    8.705141e-05   8.705141e-05  
0.004118351    8.703682e-05   8.703682e-05  
0.004278822    8.702203e-05   8.702203e-05  
0.004439474    8.700707e-05   8.700707e-05  
0.004600308    8.699196e-05   8.699196e-05  
0.004761349    8.69767e-05    8.69767e-05   
0.0049226      8.696131e-05   8.696131e-05  
0.005084086    8.694579e-05   8.694579e-05  
0.005245782    8.693017e-05   8.693017e-05  
0.005407715    8.691443e-05   8.691443e-05  
0.005569886    8.68986e-05    8.68986e-05   
0.005732348    8.688267e-05   8.688267e-05  
0.005895049    8.686665e-05   8.686665e-05  
0.006058071    8.685055e-05   8.685055e-05  
0.006221333    8.683436e-05   8.683436e-05  
0.006384945    8.68181e-05    8.68181e-05   
0.006548854    8.680176e-05   8.680176e-05  
0.006713115    8.678534e-05   8.678534e-05  
0.006877648    8.676886e-05   8.676886e-05  
0.007042536    8.675231e-05   8.675231e-05  
0.007207726    8.67357e-05    8.67357e-05   
0.007373247    8.671903e-05   8.671903e-05  
0.007539072    8.67023e-05    8.67023e-05   
0.00770523     8.668551e-05   8.668551e-05  
0.007871722    8.666866e-05   8.666866e-05  
0.00803855     8.665176e-05   8.665176e-05  
0.008205716    8.663481e-05   8.663481e-05  
0.008373192    8.66178e-05    8.66178e-05   
0.008541009    8.660075e-05   8.660075e-05  
0.008709167    8.658365e-05   8.658365e-05  
0.008877667    8.65665e-05    8.65665e-05   
0.009046513    8.65493e-05    8.65493e-05   
0.009215704    8.653205e-05   8.653205e-05  
0.009385214    8.651477e-05   8.651477e-05  
0.009555072    8.649743e-05   8.649743e-05  
0.009725281    8.648006e-05   8.648006e-05  
0.009895842    8.646264e-05   8.646264e-05  
0.01006673     8.644518e-05   8.644518e-05  
0.01023797     8.642768e-05   8.642768e-05  
0.01040953     8.641014e-05   8.641014e-05  
0.01058145     8.639256e-05   8.639256e-05  
0.01075371     8.637495e-05   8.637495e-05  
0.01092629     8.635729e-05   8.635729e-05  
0.0110992      8.63396e-05    8.63396e-05   
0.01127245     8.632188e-05   8.632188e-05  
0.01144607     8.630411e-05   8.630411e-05  
0.01162002     8.628631e-05   8.628631e-05  
0.01179427     8.626848e-05   8.626848e-05  
0.01196884     8.625061e-05   8.625061e-05  
0.01214374     8.623272e-05   8.623272e-05  
0.01231895     8.621479e-05   8.621479e-05  
0.01249445     8.619683e-05   8.619683e-05  
0.01267025     8.617884e-05   8.617884e-05  
0.01284634     8.616082e-05   8.616082e-05  
0.01302275     8.614278e-05   8.614278e-05  
0.01319943     8.612471e-05   8.612471e-05  
0.01337641     8.610661e-05   8.610661e-05  
0.01355367     8.608848e-05   8.608848e-05  
0.01373124     8.607033e-05   8.607033e-05  
0.01390911     8.605215e-05   8.605215e-05  
0.01408727     8.603394e-05   8.603394e-05  
0.01426568     8.601572e-05   8.601572e-05  
0.01444438     8.599746e-05   8.599746e-05  
0.01462338     8.597918e-05   8.597918e-05  
0.01480264     8.596088e-05   8.596088e-05  
0.01498216     8.594256e-05   8.594256e-05  
0.01516194     8.592422e-05   8.592422e-05  
0.01534201     8.590585e-05   8.590585e-05  
0.01552235     8.588745e-05   8.588745e-05  
0.01570296     8.586904e-05   8.586904e-05  
0.01588383     8.585061e-05   8.585061e-05  
0.01606497     8.583215e-05   8.583215e-05  
0.01624637     8.581368e-05   8.581368e-05  
0.01642804     8.579518e-05   8.579518e-05  
0.01660998     8.577666e-05   8.577666e-05  
0.01679216     8.575813e-05   8.575813e-05  
0.01697461     8.573957e-05   8.573957e-05  
0.01715732     8.572099e-05   8.572099e-05  
0.01734028     8.57024e-05    8.57024e-05   
0.01752351     8.568378e-05   8.568378e-05  
0.01770698     8.566515e-05   8.566515e-05  
0.01789072     8.56465e-05    8.56465e-05   
0.01807471     8.562783e-05   8.562783e-05  
0.01825897     8.560914e-05   8.560914e-05  
0.01844347     8.559043e-05   8.559043e-05  
0.01862822     8.55717e-05    8.55717e-05   
0.01881321     8.555296e-05   8.555296e-05  
0.01899848     8.55342e-05    8.55342e-05   
0.01918399     8.551542e-05   8.551542e-05  
0.01936975     8.549662e-05   8.549662e-05  
0.01955576     8.547781e-05   8.547781e-05  
0.01974201     8.545898e-05   8.545898e-05  
0.01992848     8.544014e-05   8.544014e-05  
0.0201152      8.542128e-05   8.542128e-05  
0.02030213     8.540241e-05   8.540241e-05  
0.02048927     8.538352e-05   8.538352e-05  
0.02067663     8.536462e-05   8.536462e-05  
0.0208642      8.534571e-05   8.534571e-05  
0.02105199     8.532679e-05   8.532679e-05  
0.02124        8.530785e-05   8.530785e-05  
0.02142822     8.52889e-05    8.52889e-05   
0.02161666     8.526994e-05   8.526994e-05  
0.02180532     8.525096e-05   8.525096e-05  
0.02199416     8.523197e-05   8.523197e-05  
0.02218322     8.521297e-05   8.521297e-05  
0.0223725      8.519396e-05   8.519396e-05  
0.022562       8.517494e-05   8.517494e-05  
0.02275172     8.51559e-05    8.51559e-05   
0.02294162     8.513685e-05   8.513685e-05  
0.02313175     8.51178e-05    8.51178e-05   
0.0233221      8.509872e-05   8.509872e-05  
0.02351263     8.507964e-05   8.507964e-05  
0.02370339     8.506055e-05   8.506055e-05  
0.02389433     8.504145e-05   8.504145e-05  
0.0240855      8.502233e-05   8.502233e-05  
0.02427686     8.50032e-05    8.50032e-05   
0.02446844     8.498407e-05   8.498407e-05  
0.02466021     8.496492e-05   8.496492e-05  
0.02485217     8.494576e-05   8.494576e-05  
0.02504435     8.49266e-05    8.49266e-05   
0.02523673     8.490742e-05   8.490742e-05  
0.02542929     8.488823e-05   8.488823e-05  
0.02562209     8.486903e-05   8.486903e-05  
0.02581507     8.484982e-05   8.484982e-05  
0.02600828     8.48306e-05    8.48306e-05   
0.02620169     8.481137e-05   8.481137e-05  
0.02639529     8.479213e-05   8.479213e-05  
0.02658908     8.477289e-05   8.477289e-05  
0.02678306     8.475363e-05   8.475363e-05  
0.02697724     8.473436e-05   8.473436e-05  
0.02717161     8.471509e-05   8.471509e-05  
0.02736618     8.469581e-05   8.469581e-05  
0.02756094     8.467651e-05   8.467651e-05  
0.02775589     8.465721e-05   8.465721e-05  
0.02795104     8.46379e-05    8.46379e-05   
0.02814639     8.461858e-05   8.461858e-05  
0.02834194     8.459925e-05   8.459925e-05  
0.02853768     8.457991e-05   8.457991e-05  
0.02873362     8.456057e-05   8.456057e-05  
0.02892975     8.454121e-05   8.454121e-05  
0.02912609     8.452185e-05   8.452185e-05  
0.02932262     8.450247e-05   8.450247e-05  
0.02951935     8.448309e-05   8.448309e-05  
0.02971628     8.44637e-05    8.44637e-05   
0.02991342     8.44443e-05    8.44443e-05   
0.03011075     8.442489e-05   8.442489e-05  
0.03030824     8.440548e-05   8.440548e-05  
0.03050594     8.438605e-05   8.438605e-05  
0.03070383     8.436662e-05   8.436662e-05  
0.03090189     8.434718e-05   8.434718e-05  
0.03110015     8.432774e-05   8.432774e-05  
0.03129857     8.430828e-05   8.430828e-05  
0.0314972      8.428882e-05   8.428882e-05  
0.03169599     8.426936e-05   8.426936e-05  
0.03189494     8.424989e-05   8.424989e-05  
0.03209406     8.423041e-05   8.423041e-05  
0.03229338     8.421093e-05   8.421093e-05  
0.03249287     8.419144e-05   8.419144e-05  
0.03269252     8.417194e-05   8.417194e-05  
0.03289233     8.415244e-05   8.415244e-05  
0.03309231     8.413294e-05   8.413294e-05  
0.03329246     8.411343e-05   8.411343e-05  
0.03349277     8.409391e-05   8.409391e-05  
0.03369325     8.407439e-05   8.407439e-05  
0.0338939      8.405487e-05   8.405487e-05  
0.03409471     8.403534e-05   8.403534e-05  
0.03429569     8.40158e-05    8.40158e-05   
0.03449683     8.399626e-05   8.399626e-05  
0.03469815     8.397671e-05   8.397671e-05  
0.03489959     8.395717e-05   8.395717e-05  
0.0351012      8.393762e-05   8.393762e-05  
0.03530298     8.391806e-05   8.391806e-05  
0.03550492     8.38985e-05    8.38985e-05   
0.03570704     8.387893e-05   8.387893e-05  
0.03590932     8.385936e-05   8.385936e-05  
0.03611173     8.383979e-05   8.383979e-05  
0.03631432     8.382021e-05   8.382021e-05  
0.03651707     8.380063e-05   8.380063e-05  
0.03671999     8.378104e-05   8.378104e-05  
0.03692305     8.376145e-05   8.376145e-05  
0.03712627     8.374185e-05   8.374185e-05  
0.03732967     8.372225e-05   8.372225e-05  
0.03753319     8.370265e-05   8.370265e-05  
0.03773689     8.368305e-05   8.368305e-05  
0.03794076     8.366344e-05   8.366344e-05  
0.03814475     8.364383e-05   8.364383e-05  
0.03834893     8.362421e-05   8.362421e-05  
0.03855323     8.360459e-05   8.360459e-05  
0.03875771     8.358497e-05   8.358497e-05  
0.03896231     8.356534e-05   8.356534e-05  
0.03916709     8.354571e-05   8.354571e-05  
0.03937201     8.352608e-05   8.352608e-05  
0.03957709     8.350645e-05   8.350645e-05  
0.03978231     8.348681e-05   8.348681e-05  
0.03998766     8.346718e-05   8.346718e-05  
0.04019319     8.344753e-05   8.344753e-05  
0.04039885     8.342789e-05   8.342789e-05  
0.04060464     8.340825e-05   8.340825e-05  
0.04081056     8.33886e-05    8.33886e-05   
0.04101661     8.336895e-05   8.336895e-05  
0.0412228      8.334931e-05   8.334931e-05  
0.04142913     8.332966e-05   8.332966e-05  
0.04163558     8.331001e-05   8.331001e-05  
0.04184217     8.329036e-05   8.329036e-05  
0.04204885     8.327071e-05   8.327071e-05  
0.04225566     8.325106e-05   8.325106e-05  
0.0424626      8.323141e-05   8.323141e-05  
0.04266968     8.321176e-05   8.321176e-05  
0.04287685     8.319211e-05   8.319211e-05  
0.04308416     8.317247e-05   8.317247e-05  
0.0432916      8.315282e-05   8.315282e-05  
0.04349917     8.313317e-05   8.313317e-05  
0.04370683     8.311352e-05   8.311352e-05  
0.04391463     8.309387e-05   8.309387e-05  
0.04412257     8.307422e-05   8.307422e-05  
0.04433059     8.305458e-05   8.305458e-05  
0.04453876     8.303493e-05   8.303493e-05  
0.04474705     8.301528e-05   8.301528e-05  
0.04495544     8.299564e-05   8.299564e-05  
0.04516397     8.297599e-05   8.297599e-05  
0.04537258     8.295635e-05   8.295635e-05  
0.04558134     8.293671e-05   8.293671e-05  
0.04579018     8.291706e-05   8.291706e-05  
0.04599916     8.289742e-05   8.289742e-05  
0.04620824     8.287778e-05   8.287778e-05  
0.04641745     8.285815e-05   8.285815e-05  
0.04662675     8.283851e-05   8.283851e-05  
0.04683619     8.281887e-05   8.281887e-05  
0.04704572     8.279924e-05   8.279924e-05  
0.04725539     8.27796e-05    8.27796e-05   
0.04746516     8.275997e-05   8.275997e-05  
0.04767506     8.274034e-05   8.274034e-05  
0.04788505     8.272071e-05   8.272071e-05  
0.04809519     8.270108e-05   8.270108e-05  
0.04830541     8.268145e-05   8.268145e-05  
0.04851578     8.266182e-05   8.266182e-05  
0.04872624     8.26422e-05    8.26422e-05   
0.04893684     8.262257e-05   8.262257e-05  
0.04914753     8.260295e-05   8.260295e-05  
0.04935836     8.258332e-05   8.258332e-05  
0.04956928     8.25637e-05    8.25637e-05   
0.04978035     8.254408e-05   8.254408e-05  
0.04999151     8.252446e-05   8.252446e-05  
0.05020281     8.250484e-05   8.250484e-05  
0.05041421     8.248522e-05   8.248522e-05  
0.05062574     8.24656e-05    8.24656e-05   
0.05083742     8.244598e-05   8.244598e-05  
0.05104919     8.242637e-05   8.242637e-05  
0.05126111     8.240675e-05   8.240675e-05  
0.05147311     8.238714e-05   8.238714e-05  
0.05168527     8.236752e-05   8.236752e-05  
0.05189751     8.234791e-05   8.234791e-05  
0.0521099      8.232829e-05   8.232829e-05  
0.05232238     8.230868e-05   8.230868e-05  
0.05253501     8.228907e-05   8.228907e-05  
0.05274773     8.226946e-05   8.226946e-05  
0.0529606      8.224985e-05   8.224985e-05  
0.05317356     8.223025e-05   8.223025e-05  
0.05338667     8.221064e-05   8.221064e-05  
0.05359987     8.219104e-05   8.219104e-05  
0.05381321     8.217143e-05   8.217143e-05  
0.05402665     8.215183e-05   8.215183e-05  
0.05424024     8.213222e-05   8.213222e-05  
0.05445392     8.211262e-05   8.211262e-05  
0.05466775     8.209302e-05   8.209302e-05  
0.05488172     8.207342e-05   8.207342e-05  
0.05509584     8.205382e-05   8.205382e-05  
0.05531006     8.203421e-05   8.203421e-05  
0.05552442     8.201461e-05   8.201461e-05  
0.05573888     8.199501e-05   8.199501e-05  
0.05595343     8.197542e-05   8.197542e-05  
0.05616814     8.195582e-05   8.195582e-05  
0.05638298     8.193622e-05   8.193622e-05  
0.05659793     8.191662e-05   8.191662e-05  
0.05681303     8.189703e-05   8.189703e-05  
0.05702822     8.187743e-05   8.187743e-05  
0.05724356     8.185784e-05   8.185784e-05  
0.05745899     8.183825e-05   8.183825e-05  
0.05767458     8.181865e-05   8.181865e-05  
0.05789026     8.179906e-05   8.179906e-05  
0.0581061      8.177947e-05   8.177947e-05  
0.05832208     8.175988e-05   8.175988e-05  
0.05853816     8.174029e-05   8.174029e-05  
0.05875439     8.17207e-05    8.17207e-05   
0.05897072     8.170111e-05   8.170111e-05  
0.05918719     8.168152e-05   8.168152e-05  
0.05940382     8.166193e-05   8.166193e-05  
0.05962055     8.164234e-05   8.164234e-05  
0.05983743     8.162275e-05   8.162275e-05  
0.06005445     8.160316e-05   8.160316e-05  
0.06027158     8.158358e-05   8.158358e-05  
0.06048886     8.156399e-05   8.156399e-05  
0.06070624     8.15444e-05    8.15444e-05   
0.06092377     8.152482e-05   8.152482e-05  
0.06114145     8.150523e-05   8.150523e-05  
0.06135923     8.148564e-05   8.148564e-05  
0.06157717     8.146606e-05   8.146606e-05  
0.06179525     8.144647e-05   8.144647e-05  
0.06201344     8.142688e-05   8.142688e-05  
0.06223178     8.14073e-05    8.14073e-05   
0.06245022     8.138771e-05   8.138771e-05  
0.06266881     8.136813e-05   8.136813e-05  
0.06288751     8.134854e-05   8.134854e-05  
0.06310636     8.132896e-05   8.132896e-05  
0.06332536     8.130938e-05   8.130938e-05  
0.06354447     8.128979e-05   8.128979e-05  
0.06376373     8.127021e-05   8.127021e-05  
0.06398309     8.125063e-05   8.125063e-05  
0.0642026      8.123105e-05   8.123105e-05  
0.06442222     8.121147e-05   8.121147e-05  
0.064642       8.119189e-05   8.119189e-05  
0.06486187     8.117231e-05   8.117231e-05  
0.06508191     8.115273e-05   8.115273e-05  
0.06530209     8.113315e-05   8.113315e-05  
0.06552239     8.111358e-05   8.111358e-05  
0.06574283     8.1094e-05     8.1094e-05    
0.06596339     8.107442e-05   8.107442e-05  
0.06618404     8.105485e-05   8.105485e-05  
0.06640485     8.103527e-05   8.103527e-05  
0.06662577     8.10157e-05    8.10157e-05   
0.06684684     8.099613e-05   8.099613e-05  
0.06706802     8.097656e-05   8.097656e-05  
0.06728936     8.095699e-05   8.095699e-05  
0.0675108      8.093742e-05   8.093742e-05  
0.0677324      8.091785e-05   8.091785e-05  
0.0679541      8.089828e-05   8.089828e-05  
0.06817597     8.087871e-05   8.087871e-05  
0.06839794     8.085915e-05   8.085915e-05  
0.06862006     8.083958e-05   8.083958e-05  
0.0688423      8.082001e-05   8.082001e-05  
0.06906469     8.080045e-05   8.080045e-05  
0.06928719     8.078088e-05   8.078088e-05  
0.06950985     8.076132e-05   8.076132e-05  
0.06973261     8.074176e-05   8.074176e-05  
0.06995554     8.072219e-05   8.072219e-05  
0.07017857     8.070263e-05   8.070263e-05  
0.07040171     8.068307e-05   8.068307e-05  
0.07062501     8.066352e-05   8.066352e-05  
0.07084842     8.064396e-05   8.064396e-05  
0.07107193     8.062441e-05   8.062441e-05  
0.07129555     8.060485e-05   8.060485e-05  
0.07151934     8.05853e-05    8.05853e-05   
0.07174323     8.056575e-05   8.056575e-05  
0.07196728     8.05462e-05    8.05462e-05   
0.07219145     8.052665e-05   8.052665e-05  
0.07241572     8.050711e-05   8.050711e-05  
0.07264015     8.048756e-05   8.048756e-05  
0.07286469     8.046802e-05   8.046802e-05  
0.07308934     8.044847e-05   8.044847e-05  
0.07331416     8.042893e-05   8.042893e-05  
0.07353908     8.040939e-05   8.040939e-05  
0.07376412     8.038985e-05   8.038985e-05  
0.07398931     8.037031e-05   8.037031e-05  
0.07421462     8.035078e-05   8.035078e-05  
0.07444009     8.033124e-05   8.033124e-05  
0.07466567     8.03117e-05    8.03117e-05   
0.07489136     8.029217e-05   8.029217e-05  
0.07511722     8.027264e-05   8.027264e-05  
0.07534324     8.02531e-05    8.02531e-05   
0.07556938     8.023357e-05   8.023357e-05  
0.07579567     8.021403e-05   8.021403e-05  
0.07602214     8.01945e-05    8.01945e-05   
0.07624872     8.017496e-05   8.017496e-05  
0.07647546     8.015543e-05   8.015543e-05  
0.07670237     8.013589e-05   8.013589e-05  
0.07692939     8.011635e-05   8.011635e-05  
0.07715658     8.009682e-05   8.009682e-05  
0.07738388     8.007728e-05   8.007728e-05  
0.07761135     8.005774e-05   8.005774e-05  
0.07783893     8.003821e-05   8.003821e-05  
0.07806668     8.001868e-05   8.001868e-05  
0.07829455     7.999914e-05   7.999914e-05  
0.07852258     7.997961e-05   7.997961e-05  
0.07875072     7.996008e-05   7.996008e-05  
0.07897904     7.994054e-05   7.994054e-05  
0.07920747     7.992101e-05   7.992101e-05  
0.07943606     7.990148e-05   7.990148e-05  
0.07966477     7.988195e-05   7.988195e-05  
0.07989366     7.986242e-05   7.986242e-05  
0.08012265     7.984289e-05   7.984289e-05  
0.08035176     7.982336e-05   7.982336e-05  
0.08058099     7.980384e-05   7.980384e-05  
0.08081038     7.978431e-05   7.978431e-05  
0.08103989     7.976479e-05   7.976479e-05  
0.08126952     7.974527e-05   7.974527e-05  
0.08149932     7.972574e-05   7.972574e-05  
0.08172923     7.970622e-05   7.970622e-05  
0.08195931     7.96867e-05    7.96867e-05   
0.08218952     7.966718e-05   7.966718e-05  
0.08241989     7.964766e-05   7.964766e-05  
0.08265038     7.962814e-05   7.962814e-05  
0.08288104     7.960862e-05   7.960862e-05  
0.08311182     7.95891e-05    7.95891e-05   
0.08334278     7.956958e-05   7.956958e-05  
0.08357385     7.955007e-05   7.955007e-05  
0.08380504     7.953055e-05   7.953055e-05  
0.0840364      7.951104e-05   7.951104e-05  
0.08426788     7.949152e-05   7.949152e-05  
0.08449947     7.947201e-05   7.947201e-05  
0.08473125     7.94525e-05    7.94525e-05   
0.08496314     7.943299e-05   7.943299e-05  
0.08519514     7.941348e-05   7.941348e-05  
0.08542733     7.939397e-05   7.939397e-05  
0.08565963     7.937446e-05   7.937446e-05  
0.08589205     7.935495e-05   7.935495e-05  
0.08612459     7.933545e-05   7.933545e-05  
0.0863573      7.931595e-05   7.931595e-05  
0.08659014     7.929644e-05   7.929644e-05  
0.08682309     7.927695e-05   7.927695e-05  
0.08705616     7.925745e-05   7.925745e-05  
0.08728941     7.923795e-05   7.923795e-05  
0.08752278     7.921845e-05   7.921845e-05  
0.08775627     7.919896e-05   7.919896e-05  
0.08798988     7.917947e-05   7.917947e-05  
0.08822367     7.915998e-05   7.915998e-05  
0.08845758     7.914048e-05   7.914048e-05  
0.08869161     7.9121e-05     7.9121e-05    
0.08892576     7.910151e-05   7.910151e-05  
0.08916009     7.908202e-05   7.908202e-05  
0.08939454     7.906254e-05   7.906254e-05  
0.08962911     7.904305e-05   7.904305e-05  
0.0898638      7.902357e-05   7.902357e-05  
0.09009861     7.90041e-05    7.90041e-05   
0.09033355     7.898462e-05   7.898462e-05  
0.09056861     7.896515e-05   7.896515e-05  
0.09080378     7.894568e-05   7.894568e-05  
0.09103908     7.892621e-05   7.892621e-05  
0.0912745      7.890675e-05   7.890675e-05  
0.09151011     7.888728e-05   7.888728e-05  
0.09174583     7.886782e-05   7.886782e-05  
0.09198168     7.884836e-05   7.884836e-05  
0.09221765     7.88289e-05    7.88289e-05   
0.09245375     7.880944e-05   7.880944e-05  
0.09268997     7.878998e-05   7.878998e-05  
0.09292631     7.877053e-05   7.877053e-05  
0.09316277     7.875108e-05   7.875108e-05  
0.09339936     7.873164e-05   7.873164e-05  
0.09363607     7.871219e-05   7.871219e-05  
0.0938729      7.869275e-05   7.869275e-05  
0.09410986     7.867331e-05   7.867331e-05  
0.09434694     7.865388e-05   7.865388e-05  
0.09458421     7.863444e-05   7.863444e-05  
0.0948216      7.8615e-05     7.8615e-05    
0.09505912     7.859557e-05   7.859557e-05  
0.09529676     7.857613e-05   7.857613e-05  
0.09553453     7.85567e-05    7.85567e-05   
0.09577242     7.853728e-05   7.853728e-05  
0.09601044     7.851785e-05   7.851785e-05  
0.09624858     7.849843e-05   7.849843e-05  
0.09648685     7.847901e-05   7.847901e-05  
0.0967253      7.845959e-05   7.845959e-05  
0.09696382     7.844018e-05   7.844018e-05  
0.09720247     7.842076e-05   7.842076e-05  
0.09744124     7.840135e-05   7.840135e-05  
0.09768014     7.838195e-05   7.838195e-05  
0.09791917     7.836254e-05   7.836254e-05  
0.09815832     7.834314e-05   7.834314e-05  
0.0983976      7.832374e-05   7.832374e-05  
0.098637       7.830434e-05   7.830434e-05  
0.09887654     7.828495e-05   7.828495e-05  
0.09911613     7.826556e-05   7.826556e-05  
0.09935586     7.824617e-05   7.824617e-05  
0.09959571     7.822679e-05   7.822679e-05  
0.09983569     7.820741e-05   7.820741e-05  
0.1000757      7.818804e-05   7.818804e-05  
0.1003159      7.816867e-05   7.816867e-05  
0.1005562      7.81493e-05    7.81493e-05   
0.1007966      7.812994e-05   7.812994e-05  
0.1010371      7.811058e-05   7.811058e-05  
0.1012777      7.809122e-05   7.809122e-05  
0.1015184      7.807187e-05   7.807187e-05  
0.1017593      7.805252e-05   7.805252e-05  
0.1020003      7.803317e-05   7.803317e-05  
0.1022414      7.801383e-05   7.801383e-05  
0.1024826      7.799449e-05   7.799449e-05  
0.1027239      7.797515e-05   7.797515e-05  
0.1029654      7.795582e-05   7.795582e-05  
0.103207       7.793648e-05   7.793648e-05  
0.1034487      7.791715e-05   7.791715e-05  
0.1036906      7.789783e-05   7.789783e-05  
0.1039325      7.787851e-05   7.787851e-05  
0.1041745      7.785919e-05   7.785919e-05  
0.1044167      7.783987e-05   7.783987e-05  
0.104659       7.782056e-05   7.782056e-05  
0.1049015      7.780125e-05   7.780125e-05  
0.105144       7.778194e-05   7.778194e-05  
0.1053867      7.776264e-05   7.776264e-05  
0.1056295      7.774334e-05   7.774334e-05  
0.1058724      7.772404e-05   7.772404e-05  
0.1061154      7.770475e-05   7.770475e-05  
0.1063586      7.768545e-05   7.768545e-05  
0.1066019      7.766616e-05   7.766616e-05  
0.1068452      7.764688e-05   7.764688e-05  
0.1070888      7.762759e-05   7.762759e-05  
0.1073325      7.760831e-05   7.760831e-05  
0.1075763      7.758903e-05   7.758903e-05  
0.1078203      7.756975e-05   7.756975e-05  
0.1080644      7.755047e-05   7.755047e-05  
0.1083086      7.75312e-05    7.75312e-05   
0.108553       7.751192e-05   7.751192e-05  
0.1087975      7.749265e-05   7.749265e-05  
0.1090421      7.747338e-05   7.747338e-05  
0.1092869      7.745412e-05   7.745412e-05  
0.1095318      7.743485e-05   7.743485e-05  
0.1097768      7.741559e-05   7.741559e-05  
0.110022       7.739633e-05   7.739633e-05  
0.1102673      7.737707e-05   7.737707e-05  
0.1105128      7.735782e-05   7.735782e-05  
0.1107584      7.733856e-05   7.733856e-05  
0.1110042      7.73193e-05    7.73193e-05   
0.1112501      7.730004e-05   7.730004e-05  
0.1114962      7.728079e-05   7.728079e-05  
0.1117423      7.726154e-05   7.726154e-05  
0.1119887      7.724229e-05   7.724229e-05  
0.1122351      7.722304e-05   7.722304e-05  
0.1124817      7.72038e-05    7.72038e-05   
0.1127285      7.718455e-05   7.718455e-05  
0.1129755      7.716531e-05   7.716531e-05  
0.1132226      7.714606e-05   7.714606e-05  
0.1134698      7.712682e-05   7.712682e-05  
0.1137172      7.710758e-05   7.710758e-05  
0.1139646      7.708834e-05   7.708834e-05  
0.1142123      7.706911e-05   7.706911e-05  
0.1144601      7.704987e-05   7.704987e-05  
0.114708       7.703064e-05   7.703064e-05  
0.114956       7.701141e-05   7.701141e-05  
0.1152042      7.699218e-05   7.699218e-05  
0.1154525      7.697296e-05   7.697296e-05  
0.115701       7.695374e-05   7.695374e-05  
0.1159496      7.693451e-05   7.693451e-05  
0.1161984      7.691529e-05   7.691529e-05  
0.1164472      7.689608e-05   7.689608e-05  
0.1166963      7.687686e-05   7.687686e-05  
0.1169455      7.685764e-05   7.685764e-05  
0.1171949      7.683842e-05   7.683842e-05  
0.1174444      7.681921e-05   7.681921e-05  
0.1176941      7.679999e-05   7.679999e-05  
0.1179439      7.678078e-05   7.678078e-05  
0.1181938      7.676157e-05   7.676157e-05  
0.1184439      7.674236e-05   7.674236e-05  
0.1186941      7.672316e-05   7.672316e-05  
0.1189445      7.670395e-05   7.670395e-05  
0.119195       7.668475e-05   7.668475e-05  
0.1194457      7.666555e-05   7.666555e-05  
0.1196965      7.664635e-05   7.664635e-05  
0.1199474      7.662716e-05   7.662716e-05  
0.1201985      7.660796e-05   7.660796e-05  
0.1204497      7.658877e-05   7.658877e-05  
0.120701       7.656958e-05   7.656958e-05  
0.1209525      7.65504e-05    7.65504e-05   
0.1212041      7.653122e-05   7.653122e-05  
0.1214558      7.651204e-05   7.651204e-05  
0.1217077      7.649286e-05   7.649286e-05  
0.1219597      7.647369e-05   7.647369e-05  
0.1222119      7.645451e-05   7.645451e-05  
0.1224642      7.643534e-05   7.643534e-05  
0.1227166      7.641617e-05   7.641617e-05  
0.1229692      7.6397e-05     7.6397e-05    
0.123222       7.637783e-05   7.637783e-05  
0.1234749      7.635867e-05   7.635867e-05  
0.1237279      7.63395e-05    7.63395e-05   
0.123981       7.632035e-05   7.632035e-05  
0.1242343      7.630119e-05   7.630119e-05  
0.1244877      7.628204e-05   7.628204e-05  
0.1247412      7.626289e-05   7.626289e-05  
0.1249949      7.624374e-05   7.624374e-05  
0.1252487      7.62246e-05    7.62246e-05   
0.1255026      7.620545e-05   7.620545e-05  
0.1257567      7.618632e-05   7.618632e-05  
0.1260109      7.616718e-05   7.616718e-05  
0.1262653      7.614804e-05   7.614804e-05  
0.1265197      7.612892e-05   7.612892e-05  
0.1267743      7.610979e-05   7.610979e-05  
0.127029       7.609066e-05   7.609066e-05  
0.1272839      7.607154e-05   7.607154e-05  
0.1275389      7.605243e-05   7.605243e-05  
0.127794       7.603331e-05   7.603331e-05  
0.1280492      7.60142e-05    7.60142e-05   
0.1283046      7.599509e-05   7.599509e-05  
0.1285602      7.597598e-05   7.597598e-05  
0.1288159      7.595687e-05   7.595687e-05  
0.1290717      7.593777e-05   7.593777e-05  
0.1293277      7.591866e-05   7.591866e-05  
0.1295839      7.589956e-05   7.589956e-05  
0.1298402      7.588046e-05   7.588046e-05  
0.1300967      7.586136e-05   7.586136e-05  
0.1303532      7.584227e-05   7.584227e-05  
0.1306099      7.582318e-05   7.582318e-05  
0.1308667      7.580409e-05   7.580409e-05  
0.1311236      7.5785e-05     7.5785e-05    
0.1313807      7.576592e-05   7.576592e-05  
0.1316378      7.574685e-05   7.574685e-05  
0.1318951      7.572778e-05   7.572778e-05  
0.1321526      7.570871e-05   7.570871e-05  
0.1324102      7.568964e-05   7.568964e-05  
0.1326678      7.567058e-05   7.567058e-05  
0.1329257      7.565152e-05   7.565152e-05  
0.1331836      7.563246e-05   7.563246e-05  
0.1334417      7.561341e-05   7.561341e-05  
0.1336999      7.559436e-05   7.559436e-05  
0.1339583      7.557531e-05   7.557531e-05  
0.1342167      7.555627e-05   7.555627e-05  
0.1344753      7.553723e-05   7.553723e-05  
0.1347341      7.551819e-05   7.551819e-05  
0.1349929      7.549916e-05   7.549916e-05  
0.1352519      7.548013e-05   7.548013e-05  
0.135511       7.54611e-05    7.54611e-05   
0.1357702      7.544208e-05   7.544208e-05  
0.1360296      7.542306e-05   7.542306e-05  
0.1362891      7.540405e-05   7.540405e-05  
0.1365488      7.538503e-05   7.538503e-05  
0.1368086      7.536602e-05   7.536602e-05  
0.1370685      7.534701e-05   7.534701e-05  
0.1373286      7.5328e-05     7.5328e-05    
0.1375887      7.5309e-05     7.5309e-05    
0.1378491      7.529001e-05   7.529001e-05  
0.1381095      7.527101e-05   7.527101e-05  