# Probe 0 (0 0 0)
# Probe 1 (-0.02079268 0.01894303 4.634555e-17)
# Probe 2 (0.02084516 0.01902959 6.086361e-17)
# Probe 3 (-0.0002369365 0.02063675 -0.01158831)
# Time         0              1              2              3             
0              0              0              0              0             
1.199999e-06   0              1.840276e-95   6.51883e-75    2.233706e-90  
2.639996e-06   1.030706e-186  1.345752e-91   2.534369e-74   5.501624e-89  
4.367991e-06   6.081496e-184  3.898986e-89   1.159324e-73   5.485939e-87  
6.441582e-06   2.884437e-181  6.49922e-88    7.930773e-73   1.519435e-85  
8.92989e-06    4.470566e-178  6.314382e-87   1.024377e-71   1.644828e-84  
1.191586e-05   5.574895e-175  8.111498e-86   1.799394e-70   1.889097e-83  
1.549901e-05   6.15865e-172   1.206685e-84   3.143361e-69   2.501089e-82  
1.97988e-05    4.536257e-169  1.804847e-83   5.092938e-68   3.41279e-81   
2.495853e-05   2.555702e-166  2.60022e-82    7.65985e-67    4.613932e-80  
3.115017e-05   1.205039e-163  3.585993e-81   1.077069e-65   6.493014e-79  
3.858013e-05   5.261204e-161  4.747191e-80   1.42213e-64    8.871171e-78  
4.749602e-05   2.290649e-158  6.065754e-79   1.755607e-63   1.1717e-76    
5.819505e-05   1.017888e-155  7.519699e-78   2.078762e-62   1.523886e-75  
7.103374e-05   4.406601e-153  9.088901e-77   2.401936e-61   1.960986e-74  
8.644002e-05   1.688333e-150  1.075435e-75   2.745272e-60   2.511131e-73  
0.0001049275   4.559362e-148  1.250233e-74   3.127161e-59   3.270125e-72  
0.0001271124   -3.459132e-146 1.432121e-73   3.557124e-58   4.528611e-71  
0.0001537338   -1.75294e-142  1.620246e-72   4.035826e-57   6.98377e-70   
0.0001856788   -1.72838e-139  1.814176e-71   4.560269e-56   1.197261e-68  
0.0002240123   -1.27789e-136  2.013795e-70   5.126347e-55   2.131199e-67  
0.0002700107   -8.221896e-134 2.218375e-69   5.728899e-54   3.521098e-66  
0.0003252078   -4.875696e-131 2.427262e-68   6.36056e-53    4.439853e-65  
0.0003914421   -2.758349e-128 2.63759e-67    7.002746e-52   1.043491e-64  
0.0004709212   -1.525512e-125 2.842954e-66   7.610005e-51   -1.708895e-62 
0.0005662961   -8.371236e-123 3.029149e-65   8.071262e-50   -7.265861e-61 
0.0006793159   -4.033405e-120 3.035214e-64   7.794193e-49   -1.957229e-59 
0.0008111872   -1.47414e-117  2.730908e-63   6.208216e-48   -3.999885e-58 
0.000963132    -3.954765e-115 2.141197e-62   4.147128e-47   -6.591235e-57 
0.001136365    -8.110248e-113 1.425869e-61   2.378965e-46   -9.095795e-56 
0.001332183    -1.317846e-110 8.149782e-61   1.198905e-45   -1.079663e-54 
0.001551911    -1.736857e-108 4.147721e-60   5.460309e-45   -1.124831e-53 
0.001796929    -1.873221e-106 1.993927e-59   2.321253e-44   -1.044288e-52 
0.002063757    -1.418543e-104 9.31807e-59    9.227606e-44   -8.279891e-52 
0.002343683    -6.122713e-103 4.127061e-58   3.361955e-43   -5.309243e-51 
0.00263608     -1.755536e-101 1.748317e-57   1.155528e-42   -2.90838e-50  
0.002941832    -3.870398e-100 7.054469e-57   3.821804e-42   -1.415678e-49 
0.003262223    -7.17348e-99   2.697781e-56   1.228441e-41   -6.286931e-49 
0.003594913    -1.106588e-97  9.598026e-56   3.792586e-41   -2.543038e-48 
0.003939809    -1.467563e-96  3.183762e-55   1.123894e-40   -9.492059e-48 
0.004297846    -1.736669e-95  9.931765e-55   3.205106e-40   -3.318146e-47 
0.004668547    -1.849044e-94  2.92286e-54    8.776714e-40   -1.092172e-46 
0.005053142    -1.81682e-93   8.188667e-54   2.314903e-39   -3.420229e-46 
0.00545128     -1.646321e-92  2.190076e-53   5.870231e-39   -1.021142e-45 
0.005863443    -1.389195e-91  5.620426e-53   1.430604e-38   -2.919837e-45 
0.006289562    -1.106146e-90  1.388234e-52   3.343877e-38   -8.018544e-45 
0.006730037    -8.254886e-90  3.312477e-52   7.493837e-38   -2.122673e-44 
0.007185665    -5.827824e-89  7.665297e-52   1.611917e-37   -5.442888e-44 
0.007657311    -3.933969e-88  1.725793e-51   3.333546e-37   -9.452164e-43 
0.008144949    -2.543714e-87  3.784452e-51   6.634628e-37   -7.677596e-42 
0.008648173    -1.575138e-86  8.087086e-51   1.272543e-36   -3.336754e-41 
0.009166391    -9.329476e-86  1.684962e-50   2.35673e-36    -1.088112e-40 
0.009699097    -5.301753e-85  3.425847e-50   4.224482e-36   -3.035986e-40 
0.01024713     -2.913699e-84  6.817134e-50   7.359932e-36   -7.684021e-40 
0.01081174     -1.558624e-83  1.331793e-49   1.251614e-35   -1.818194e-39 
0.01139293     -8.109416e-83  2.558307e-49   2.08309e-35    -4.084294e-39 
0.01198992     -4.094955e-82  4.835478e-49   3.399041e-35   -8.782793e-39 
0.01260244     -2.007086e-81  9.001162e-49   5.450451e-35   -1.819177e-38 
0.01323016     -9.546916e-81  1.651087e-48   8.608367e-35   -3.645368e-38 
0.01387301     -4.416275e-80  2.986398e-48   1.342302e-34   -7.093678e-38 
0.01453043     -1.988707e-79  5.326711e-48   2.070462e-34   -1.344009e-37 
0.01520218     -8.720878e-79  9.374214e-48   3.165886e-34   -2.713483e-37 
0.01588798     -3.725583e-78  1.628389e-47   4.808565e-34   -6.426385e-37 
0.01658742     -1.549417e-77  2.79315e-47    7.267986e-34   -1.617696e-36 
0.01730055     -6.284989e-77  4.733899e-47   1.095298e-33   -3.999323e-36 
0.01802633     -2.48083e-76   7.924923e-47   1.647444e-33   -9.502093e-36 
0.01876521     -9.569177e-76  1.311524e-46   2.476888e-33   -2.168735e-35 
0.01951654     -3.613726e-75  2.145632e-46   3.724716e-33   -4.771417e-35 
0.02028015     -1.33295e-74   3.471017e-46   5.605271e-33   -1.015768e-34 
0.02105586     -4.796388e-74  5.553694e-46   8.440854e-33   -2.097632e-34 
0.02184406     -1.685278e-73  8.795114e-46   1.271784e-32   -4.211756e-34 
0.02264517     -5.795501e-73  1.379527e-45   1.916782e-32   -1.436924e-33 
0.02345896     -1.951325e-72  2.143339e-45   2.887148e-32   -7.47559e-33  
0.02428443     -6.435161e-72  3.297671e-45   4.339529e-32   -2.835158e-32 
0.02511625     -2.060457e-71  5.012231e-45   6.487283e-32   -8.18491e-32  
0.02595019     -6.359999e-71  7.514744e-45   9.620843e-32   -1.980119e-31 
0.02678629     -1.895788e-70  1.112432e-44   1.414783e-31   -4.259861e-31 
0.02762526     -5.479546e-70  1.627851e-44   2.06292e-31    -8.434777e-31 
0.02846715     -1.539257e-69  2.35613e-44    2.981392e-31   -1.569148e-30 
0.02931196     -4.21425e-69   3.37469e-44    4.269413e-31   -2.780774e-30 
0.03015898     -1.125213e-68  4.783753e-44   6.054664e-31   -9.455821e-30 
0.03100897     -2.934334e-68  6.717166e-44   8.505074e-31   -4.0721e-29   
0.03186121     -7.476774e-68  9.344988e-44   1.182899e-30   -1.199294e-28 
0.0327157      -1.862135e-67  1.288682e-43   1.628619e-30   -2.72737e-28  
0.03357322     -4.551863e-67  1.762723e-43   2.219757e-30   -5.343137e-28 
0.03443303     -1.092521e-66  2.391961e-43   2.994533e-30   -9.511441e-28 
0.03529514     -2.574319e-66  3.220903e-43   3.998638e-30   -1.584388e-27 
0.03615958     -5.956516e-66  4.30519e-43    5.28497e-30    -2.512984e-27 
0.03702634     -1.353913e-65  5.71439e-43    6.91457e-30    -3.836922e-27 
0.03789545     -3.02857e-65   7.533471e-43   8.956879e-30   -5.666235e-27 
0.03876692     -6.677114e-65  9.866542e-43   1.148978e-29   -8.138514e-27 
0.03964077     -1.451686e-64  1.284168e-42   1.460238e-29   -1.144704e-26 
0.04051541     -3.109639e-64  1.660766e-42   1.838746e-29   -1.583047e-26 
0.04139245     -6.569971e-64  2.13573e-42    2.295722e-29   -2.15993e-26  
0.04227111     -1.368639e-63  2.731211e-42   2.842115e-29   -2.912117e-26 
0.04315218     -2.818818e-63  3.475034e-42   3.49107e-29    -3.885816e-26 
0.04403488     -5.738045e-63  4.398958e-42   4.255671e-29   -5.135283e-26 
0.04491922     -1.154797e-62  5.541521e-42   5.150369e-29   -6.723326e-26 
0.04580519     -2.29754e-62   6.948637e-42   6.190629e-29   -8.719046e-26 
0.04669199     -4.516468e-62  8.672665e-42   7.390924e-29   -1.12129e-25  
0.04758044     -8.793444e-62  1.077848e-41   8.768237e-29   -1.432658e-25 
0.04847055     -1.696136e-61  1.334115e-41   1.033979e-28   -1.82013e-25  
0.04936233     -3.242914e-61  1.644848e-41   1.212434e-28   -2.3004e-25   
0.05025579     -6.145135e-61  2.020243e-41   1.414057e-28   -2.89331e-25  
0.05115009     -1.152285e-60  2.47181e-41    1.640439e-28   -3.621292e-25 
0.05204607     -2.141206e-60  3.013728e-41   1.893487e-28   -4.512234e-25 
0.05294376     -3.947883e-60  3.661941e-41   2.175162e-28   -5.662659e-25 
0.05384144     -7.213915e-60  4.433342e-41   2.487413e-28   -7.198667e-25 
0.05473998     -1.307119e-59  5.349674e-41   2.83308e-28    -9.233252e-25 
0.05564022     -2.350197e-59  6.436004e-41   3.21494e-28    -1.188411e-24 
0.05654219     -4.193487e-59  7.720106e-41   3.634953e-28   -1.528045e-24 
0.05744502     -7.422636e-59  9.23255e-41    4.094687e-28   -1.956007e-24 
0.05834872     -1.303939e-58  1.100906e-40   4.596393e-28   -2.487537e-24 
0.05925328     -2.274087e-58  1.309026e-40   5.142348e-28   -3.139495e-24 
0.06015872     -3.935933e-58  1.552259e-40   5.734742e-28   -3.956619e-24 
0.06106502     -6.764999e-58  1.835788e-40   6.375622e-28   -5.017752e-24 
0.06197221     -1.155533e-57  2.165459e-40   7.066723e-28   -6.39492e-24  
0.06288115     -1.961441e-57  2.548309e-40   7.810602e-28   -8.148357e-24 
0.06379097     -3.306404e-57  2.991544e-40   8.608555e-28   -1.033387e-23 
0.06470168     -5.535165e-57  3.503573e-40   9.462392e-28   -1.300884e-23 
0.06561328     -9.202039e-57  4.093927e-40   1.037374e-27   -1.623998e-23 
0.06652666     -1.521169e-56  4.773658e-40   1.134519e-27   -2.010281e-23 
0.06744093     -2.499636e-56  5.553877e-40   1.237737e-27   -2.460949e-23 
0.06835521     -4.081925e-56  6.447029e-40   1.347025e-27   -2.976244e-23 
0.06927038     -6.623603e-56  7.468646e-40   1.462574e-27   -3.57318e-23  
0.07018735     -1.068652e-55  8.636104e-40   1.584603e-27   -4.288427e-23 
0.07110523     -1.714628e-55  9.966347e-40   1.712998e-27   -5.171802e-23 
0.07202402     -2.735067e-55  1.147991e-39   1.847699e-27   -6.287482e-23 
0.07294463     -4.341067e-55  1.320108e-39   1.98888e-27    -7.723081e-23 
0.07386616     -6.851681e-55  1.515291e-39   2.13648e-27    -9.594964e-23 
0.07478768     -1.074815e-54  1.73608e-39    2.290368e-27   -1.204311e-22 
0.07571013     -1.677514e-54  1.985597e-39   2.450683e-27   -1.73074e-22  
0.07663442     -2.606555e-54  2.267426e-39   2.617514e-27   -2.898521e-22 
0.07755963     -4.029636e-54  2.585002e-39   2.790721e-27   -5.049551e-22 
0.07848578     -6.197551e-54  2.942311e-39   2.970301e-27   -8.550383e-22 
0.07941192     -9.478136e-54  3.343309e-39   3.155963e-27   -1.382701e-21 
0.080339       -1.442055e-53  3.793124e-39   3.347727e-27   -2.13798e-21  
0.08126889     -2.185909e-53  4.2981e-39     3.545894e-27   -3.183365e-21 
0.08219972     -3.299491e-53  4.863298e-39   3.749919e-27   -4.585705e-21 
0.08313056     -4.954028e-53  5.494497e-39   3.959448e-27   -6.440089e-21 
0.08406328     -7.401472e-53  6.19997e-39    4.174692e-27   -8.899058e-21 
0.08499696     -1.100885e-52  6.986521e-39   4.39521e-27    -1.215632e-20 
0.08593159     -1.631372e-52  7.862537e-39   4.620737e-27   -1.642767e-20 
0.08686718     -2.407552e-52  8.837217e-39   4.850868e-27   -2.193541e-20 
0.08780372     -3.537087e-52  9.920506e-39   5.085226e-27   -2.893365e-20 
0.08874123     -5.173105e-52  1.112329e-38   5.32344e-27    -3.771736e-20 
0.08967971     -7.534757e-52  1.245735e-38   5.565122e-27   -4.861948e-20 
0.09062012     -1.094023e-51  1.393706e-38   5.810199e-27   -6.190347e-20 
0.09156053     -1.58205e-51   1.557363e-38   6.057787e-27   -7.78712e-20  
0.0925029      -2.279155e-51  1.738623e-38   6.307963e-27   -9.711439e-20 
0.09344722     -3.270896e-51  1.939244e-38   6.560196e-27   -1.201681e-19 
0.09439253     -4.676834e-51  2.1609e-38     6.813822e-27   -1.473929e-19 
0.09533883     -6.66508e-51   2.405683e-38   7.068329e-27   -1.791257e-19 
0.09628513     -9.462916e-51  2.675654e-38   7.322938e-27   -2.159001e-19 
0.09723341     -1.339049e-50  2.974084e-38   7.57766e-27    -2.586192e-19 
0.0981827      -1.88708e-50   3.303771e-38   7.831737e-27   -3.070718e-19 
0.09913398     -2.650622e-50  3.66861e-38    8.084958e-27   -3.615118e-19 
0.1000863      -3.712028e-50  4.072475e-38   8.336488e-27   -4.236758e-19 
0.1010396      -5.183893e-50  4.520508e-38   8.585802e-27   -4.95997e-19  
0.1019939      -7.215646e-50  5.019026e-38   8.832382e-27   -5.810735e-19 
0.1029492      -1.000842e-49  5.575707e-38   9.075609e-27   -6.817165e-19 
0.1039055      -1.383409e-49  6.200133e-38   9.315046e-27   -8.004847e-19 
0.1048629      -1.906385e-49  6.904988e-38   9.54986e-27    -9.397299e-19 
0.1058223      -2.621097e-49  7.708133e-38   9.779537e-27   -1.101248e-18 
0.1067828      -3.593297e-49  8.632316e-38   1.000338e-26   -1.288008e-18 
0.1077443      -4.910343e-49  9.715461e-38   1.022085e-26   -1.503717e-18 
0.1087068      -6.690199e-49  1.102564e-37   1.043142e-26   -1.752587e-18 
0.1096703      -9.090168e-49  1.268485e-37   1.063437e-26   -2.038608e-18 
0.1106349      -1.231831e-48  1.490615e-37   1.082894e-26   -2.364938e-18 
0.1116016      -1.665355e-48  1.806103e-37   1.101476e-26   -2.73511e-18  
0.1125694      -2.244975e-48  2.277101e-37   1.119123e-26   -3.151835e-18 
0.1135382      -3.018286e-48  3.006252e-37   1.135791e-26   -3.614162e-18 
0.1145081      -4.048711e-48  4.15828e-37    1.151417e-26   -4.112949e-18 
0.115479       -5.417232e-48  5.990599e-37   1.165927e-26   -4.640659e-18 
0.1164521      -7.231804e-48  8.905478e-37   1.179233e-26   -5.19946e-18  
0.1174262      -9.632064e-48  1.350626e-36   1.191288e-26   -5.795779e-18 
0.1184025      -1.280377e-47  2.070311e-36   1.202096e-26   -6.437538e-18 
0.1193799      -1.69841e-47   3.180246e-36   1.211593e-26   -7.131599e-18 
0.1203573      -2.247239e-47  4.86695e-36    1.219715e-26   -7.886127e-18 
0.1213368      -2.967027e-47  7.402875e-36   1.226446e-26   -8.708153e-18 
0.1223186      -3.909258e-47  1.116923e-35   1.23175e-26    -9.606836e-18 
0.1233025      -5.140853e-47  1.669423e-35   1.235564e-26   -1.060652e-17 
0.1242876      -6.745438e-47  2.469351e-35   1.237818e-26   -1.173008e-17 
0.1252738      -8.832371e-47  3.614531e-35   1.238633e-26   -1.299092e-17 
0.126261       -1.15384e-46   5.237265e-35   1.238869e-26   -1.43971e-17  
0.1272494      -1.504426e-46  7.515125e-35   1.239062e-26   -1.59559e-17  
0.1282389      -1.958538e-46  1.068328e-34   1.239214e-26   -1.767383e-17 
0.1292296      -2.544624e-46  1.504999e-34   1.239324e-26   -1.95474e-17  
0.1302202      -3.29785e-46   2.101043e-34   1.23939e-26    -2.155982e-17 
0.1312131      -4.26699e-46   2.910286e-34   1.239414e-26   -2.37007e-17  
0.1322083      -5.512465e-46  4.001363e-34   1.239392e-26   -2.596912e-17 
0.1332046      -7.109996e-46  5.460231e-34   1.239327e-26   -2.837629e-17 
0.1342032      -9.157484e-46  7.400164e-34   1.239216e-26   -3.093138e-17 
0.135203       -1.17708e-45   9.960509e-34   1.239058e-26   -3.364362e-17 
0.1362051      -1.510348e-45  1.332631e-33   1.238854e-26   -3.653997e-17 
0.1372083      -1.934434e-45  1.772521e-33   1.238602e-26   -3.962565e-17 
0.1382127      -2.473755e-45  2.344255e-33   1.238302e-26   -4.288735e-17 
0.1392183      -3.158496e-45  3.083214e-33   1.237953e-26   -4.637258e-17 
0.1402263      -4.026877e-45  4.035584e-33   1.237554e-26   -5.017868e-17 
0.1412366      -5.126145e-45  5.260897e-33   1.237104e-26   -5.438701e-17 
0.1422481      -6.51495e-45   6.835728e-33   1.236604e-26   -5.903864e-17 
0.1432608      -8.266487e-45  8.945928e-33   1.236054e-26   -6.413648e-17 
0.1442746      -1.047104e-44  1.206899e-32   1.235451e-26   -6.967358e-17 
0.1452897      -1.324372e-44  1.696848e-32   1.234797e-26   -7.562525e-17 
0.146306       -1.672526e-44  2.485169e-32   1.23409e-26    -8.192583e-17 
0.1473236      -2.109151e-44  3.764643e-32   1.233332e-26   -8.854613e-17 
0.1483423      -2.655544e-44  5.834056e-32   1.232521e-26   -9.548857e-17 
0.1493622      -3.337725e-44  9.155412e-32   1.231654e-26   -1.027917e-16 
0.1503834      -4.188325e-44  1.440708e-31   1.23073e-26    -1.104867e-16 
0.151407       -5.249295e-44  2.256224e-31   1.229748e-26   -1.186231e-16 
0.1524319      -6.570398e-44  3.498915e-31   1.22871e-26    -1.272407e-16 
0.153458       -8.212177e-44  5.365917e-31   1.227615e-26   -1.363309e-16 
0.1544866      -1.025194e-43  8.127109e-31   1.22646e-26    -1.458278e-16 
0.1555165      -1.278041e-43  1.213548e-30   1.225245e-26   -1.557958e-16 
0.1565489      -1.591495e-43  1.786462e-30   1.223968e-26   -1.664269e-16 
0.1575825      -1.979137e-43  2.592901e-30   1.222629e-26   -1.778571e-16 
0.1586174      -2.45765e-43   3.715737e-30   1.221229e-26   -1.901301e-16 
0.1596536      -3.0478e-43    5.260795e-30   1.219767e-26   -2.031915e-16 
0.1606911      -3.774619e-43  7.363044e-30   1.218243e-26   -2.169767e-16 
0.1617298      -4.668346e-43  1.0191e-29     1.21666e-26    -2.313322e-16 
0.1627699      -5.765161e-43  1.39581e-29    1.215016e-26   -2.459493e-16 
0.1638125      -7.111905e-43  1.894141e-29   1.213308e-26   -2.606434e-16 
0.1648564      -8.761701e-43  2.548016e-29   1.211539e-26   -2.753567e-16 
0.165903       -1.078482e-42  3.400081e-29   1.209708e-26   -2.902669e-16 
0.1669508      -1.326106e-42  4.499651e-29   1.207817e-26   -3.057036e-16 
0.1679987      -1.628096e-42  5.906862e-29   1.205869e-26   -3.218351e-16 
0.1690479      -1.996456e-42  7.697631e-29   1.203862e-26   -3.387035e-16 
0.1700997      -2.446128e-42  9.960913e-29   1.201794e-26   -3.56267e-16  
0.1711529      -2.993479e-42  1.279557e-28   1.199668e-26   -3.742324e-16 
0.1722074      -3.658396e-42  1.632565e-28   1.197481e-26   -3.92568e-16  
0.1732632      -4.465108e-42  2.07029e-28    1.195234e-26   -4.114555e-16 
0.1743205      -5.442627e-42  2.609851e-28   1.192931e-26   -4.308321e-16 
0.1753804      -6.62915e-42   3.271439e-28   1.190569e-26   -4.507001e-16 
0.1764417      -8.06746e-42   4.076716e-28   1.188152e-26   -4.71046e-16  
0.1775043      -9.807471e-42  5.051294e-28   1.185678e-26   -4.917568e-16 
0.1785683      -1.190972e-41  6.225587e-28   1.183148e-26   -5.126447e-16 
0.1796351      -1.445085e-41  7.635577e-28   1.180559e-26   -5.333533e-16 
0.1807033      -1.751572e-41  9.317804e-28   1.177915e-26   -5.536501e-16 
0.1817715      -2.11997e-41   1.131353e-27   1.17522e-26    -5.736924e-16 
0.1828411      -2.562843e-41  1.367699e-27   1.17247e-26    -5.938261e-16 
0.1839135      -3.096085e-41  1.64672e-27    1.169664e-26   -6.144351e-16 
0.1849873      -3.737264e-41  1.97408e-27    1.166807e-26   -6.357136e-16 
0.1860625      -4.507111e-41  2.356623e-27   1.163897e-26   -6.576413e-16 
0.1871406      -5.43076e-41   2.803027e-27   1.160931e-26   -6.80016e-16  
0.18822        -6.536886e-41  3.321906e-27   1.157912e-26   -7.022103e-16 
0.189301       -7.862695e-41  3.922675e-27   1.154843e-26   -7.237331e-16 
0.1903834      -9.450022e-41  4.615525e-27   1.151723e-26   -7.443969e-16 
0.1914672      -1.134615e-40  5.412262e-27   1.148554e-26   -7.641145e-16 
0.1925525      -1.36082e-40   6.326456e-27   1.145334e-26   -7.831809e-16 
0.1936392      -1.630672e-40  7.372424e-27   1.142067e-26   -8.022126e-16 
0.1947289      -1.95329e-40   8.567282e-27   1.138746e-26   -8.215188e-16 
0.1958186      -2.337571e-40  9.925357e-27   1.135381e-26   -8.409764e-16 
0.1969112      -2.795408e-40  1.147066e-26   1.131963e-26   -8.601807e-16 
0.1980053      -3.339553e-40  1.322227e-26   1.128499e-26   -8.786125e-16 
0.1991009      -3.98702e-40   1.52016e-26    1.12499e-26    -8.961754e-16 
0.2001981      -4.756713e-40  1.743296e-26   1.121436e-26   -9.127929e-16 
0.2012967      -5.668473e-40  1.994495e-26   1.117835e-26   -9.282731e-16 
0.2023968      -6.747822e-40  2.277025e-26   1.114188e-26   -9.42746e-16  
0.2034985      -8.027383e-40  2.594096e-26   1.110496e-26   -9.564706e-16 
0.2046017      -9.542475e-40  2.949049e-26   1.10676e-26    -9.696229e-16 
0.2057064      -1.133412e-39  3.345699e-26   1.102982e-26   -9.82215e-16  
0.2068127      -1.345015e-39  3.788283e-26   1.099161e-26   -9.9399e-16   
0.2079205      -1.594969e-39  4.281249e-26   1.095299e-26   -1.004847e-15 
0.2090298      -1.890453e-39  4.829566e-26   1.091396e-26   -1.014927e-15 
0.2101407      -2.239164e-39  5.438685e-26   1.087453e-26   -1.024364e-15 
0.2112501      -2.648013e-39  6.112712e-26   1.083477e-26   -1.03328e-15  
0.212361       -3.128704e-39  6.859678e-26   1.079462e-26   -1.041847e-15 
0.2134735      -3.694534e-39  7.685939e-26   1.075409e-26   -1.050051e-15 
0.2145875      -4.360333e-39  8.598557e-26   1.071321e-26   -1.057767e-15 
0.2157032      -5.141955e-39  9.605966e-26   1.067194e-26   -1.064805e-15 
0.2168204      -6.058412e-39  1.071753e-25   1.063028e-26   -1.071109e-15 
0.2179376      -7.131625e-39  1.194058e-25   1.058831e-26   -1.076821e-15 
0.2190533      -8.385542e-39  1.32821e-25    1.054612e-26   -1.082102e-15 
0.2201657      -9.846447e-39  1.474929e-25   1.050377e-26   -1.087089e-15 
0.221275       -1.154488e-38  1.63522e-25    1.046127e-26   -1.091967e-15 
0.2223812      -1.351986e-38  1.810148e-25   1.041861e-26   -1.096888e-15 
0.2234858      -1.581675e-38  2.00108e-25    1.037575e-26   -1.101812e-15 
0.2245888      -1.848348e-38  2.209279e-25   1.03327e-26    -1.106487e-15 
0.2256918      -2.157366e-38  2.436532e-25   1.028938e-26   -1.11065e-15  
0.2267963      -2.515841e-38  2.684712e-25   1.024575e-26   -1.114278e-15 
0.2279025      -2.932744e-38  2.955483e-25   1.020183e-26   -1.117531e-15 
0.2290102      -3.417993e-38  3.250634e-25   1.015764e-26   -1.120567e-15 
0.2301196      -3.980935e-38  3.572187e-25   1.011317e-26   -1.123505e-15 
0.2312289      -4.630933e-38  3.922041e-25   1.006844e-26   -1.126481e-15 
0.2323383      -5.382228e-38  4.302432e-25   1.002349e-26   -1.129607e-15 
0.2334476      -6.251311e-38  4.71554e-25    9.978356e-27   -1.132835e-15 
0.2345537      -7.253304e-38  5.16244e-25    9.933161e-27   -1.135933e-15 
0.2356567      -8.405684e-38  5.645561e-25   9.88791e-27    -1.138669e-15 
0.2367565      -9.731105e-38  6.167524e-25   9.8426e-27     -1.140999e-15 
0.2378546      -1.125911e-37  6.732165e-25   9.797184e-27   -1.143038e-15 
0.2389513      -1.301984e-37  7.342774e-25   9.751675e-27   -1.144906e-15 
0.2400479      -1.504526e-37  8.003853e-25   9.705991e-27   -1.146693e-15 
0.2411445      -1.737071e-37  8.719173e-25   9.66014e-27    -1.148501e-15 
0.2422427      -2.004967e-37  9.493723e-25   9.614083e-27   -1.150438e-15 
0.2433425      -2.314322e-37  1.033181e-24   9.567825e-27   -1.152501e-15 
0.2444423      -2.670715e-37  1.123685e-24   9.521435e-27   -1.154541e-15 
0.2455421      -3.079545e-37  1.221412e-24   9.474883e-27   -1.156373e-15 
0.2466419      -3.548856e-37  1.326885e-24   9.428194e-27   -1.15792e-15  
0.24774        -4.087999e-37  1.440421e-24   9.381464e-27   -1.159231e-15 
0.248835       -4.706154e-37  1.562331e-24   9.334768e-27   -1.160382e-15 
0.2499268      -5.413211e-37  1.69313e-24    9.28811e-27    -1.161399e-15 
0.2510155      -6.220531e-37  1.833353e-24   9.241467e-27   -1.16228e-15  
0.2521025      -7.144697e-37  1.983746e-24   9.194781e-27   -1.162995e-15 
0.253188       -8.202729e-37  2.144868e-24   9.148079e-27   -1.163484e-15 
0.2542735      -9.412147e-37  2.317568e-24   9.101299e-27   -1.163593e-15 
0.255359       -1.079254e-36  2.502533e-24   9.054431e-27   -1.163152e-15 
0.2564445      -1.237039e-36  2.700427e-24   9.00748e-27    -1.162001e-15 
0.2575315      -1.417999e-36  2.912138e-24   8.960397e-27   -1.159928e-15 
0.258617       -1.624818e-36  3.137751e-24   8.913333e-27   -1.156667e-15 
0.2597041      -1.861098e-36  3.378833e-24   8.866133e-27   -1.1518e-15   
0.2607912      -2.130008e-36  3.635897e-24   8.818853e-27   -1.144799e-15 
0.2618782      -2.436568e-36  3.909471e-24   8.771517e-27   -1.135338e-15 
0.2629637      -2.786125e-36  4.199525e-24   8.724225e-27   -1.123143e-15 
0.264046       -3.183553e-36  4.505988e-24   8.677055e-27   -1.108261e-15 
0.2651267      -3.634896e-36  4.829686e-24   8.629904e-27   -1.09251e-15  
0.2662074      -4.147338e-36  5.171415e-24   8.582686e-27   -1.080402e-15 
0.2672865      -4.728986e-36  5.530669e-24   8.535509e-27   -1.077501e-15 
0.2683656      -5.389668e-36  5.907688e-24   8.488331e-27   -1.090773e-15 
0.2694431      -6.138621e-36  6.301549e-24   8.441221e-27   -1.128561e-15 
0.2705191      -6.986628e-36  6.711759e-24   8.394165e-27   -1.200465e-15 
0.2715934      -7.946768e-36  7.13746e-24    8.347155e-27   -1.31836e-15  
0.2726662      -9.034742e-36  7.577369e-24   8.300213e-27   -1.49352e-15  
0.2737373      -1.026596e-35  8.029776e-24   8.253347e-27   -1.735332e-15 
0.274807       -1.165406e-35  8.492539e-24   8.206555e-27   -2.050498e-15 
0.2758766      -1.321783e-35  8.963699e-24   8.159765e-27   -2.441728e-15 
0.2769446      -1.498118e-35  9.439194e-24   8.113054e-27   -2.909616e-15 
0.278011       -1.697208e-35  9.914982e-24   8.066441e-27   -3.4565e-15   
0.2790759      -1.921898e-35  1.038629e-23   8.019931e-27   -4.090014e-15 
0.2801408      -2.175184e-35  1.084807e-23   7.973434e-27   -4.834724e-15 
0.2812041      -2.459605e-35  1.129282e-23   7.927014e-27   -5.725222e-15 
0.2822658      -2.779263e-35  1.171243e-23   7.880703e-27   -6.796941e-15 
0.283326       -3.13881e-35   1.20974e-23    7.834524e-27   -8.068535e-15 
0.2843862      -3.543429e-35  1.243727e-23   7.788402e-27   -9.548696e-15 
0.2854448      -3.997103e-35  1.271892e-23   7.742374e-27   -1.125776e-14 
0.2865034      -4.505691e-35  1.292798e-23   7.696371e-27   -1.323085e-14 
0.2875604      -5.075648e-35  1.304712e-23   7.650491e-27   -1.549382e-14 
0.2886174      -5.715243e-35  1.305712e-23   7.604683e-27   -1.805931e-14 
0.2896729      -6.430898e-35  1.293581e-23   7.559015e-27   -2.0918e-14   
0.2907284      -7.233141e-35  1.265759e-23   7.513402e-27   -2.410967e-14 
0.2917823      -8.131381e-35  1.21941e-23    7.467916e-27   -2.772379e-14 
0.2928362      -9.137789e-35  1.151225e-23   7.422508e-27   -3.181935e-14 
0.2938901      -1.026531e-34  1.057479e-23   7.37718e-27    -3.640838e-14 
0.2949455      -1.152844e-34  9.336965e-24   7.331861e-27   -4.154393e-14 
0.296001       -1.293737e-34  7.75121e-24    7.286621e-27   -4.732994e-14 
0.2970565      -1.451026e-34  5.762832e-24   7.241478e-27   -5.393239e-14 
0.2981119      -1.627042e-34  3.31122e-24    7.196439e-27   -6.14887e-14  
0.2991658      -1.823813e-34  3.335286e-25   7.151568e-27   -7.0034e-14   
0.3002197      -2.04397e-34   -3.249912e-24  7.106787e-27   -7.962803e-14 
0.301272       -2.288915e-34  -7.519756e-24  7.062168e-27   -9.030297e-14 
0.3023243      -2.561686e-34  -1.2578e-23    7.017658e-27   -1.020833e-13 
0.303375       -2.865514e-34  -1.852007e-23  6.973332e-27   -1.150731e-13 
0.304421       -3.202845e-34  -2.543645e-23  6.929326e-27   -1.294694e-13 
0.3054639      -3.577477e-34  -3.345697e-23  6.885555e-27   -1.455711e-13 
0.3065036      -3.992407e-34  -4.271369e-23  6.84202e-27    -1.636931e-13 
0.3075418      -4.452275e-34  -5.336779e-23  6.798663e-27   -1.842423e-13 
0.3085737      -4.960329e-34  -6.552727e-23  6.755688e-27   -2.075464e-13 
0.3095905      -5.515983e-34  -7.921817e-23  6.713468e-27   -2.33739e-13  
0.3105955      -6.124033e-34  -9.46154e-23   6.671866e-27   -2.63088e-13  
0.3115889      -6.788846e-34  -1.118697e-22  6.630879e-27   -2.957963e-13 
0.3125737      -7.517173e-34  -1.311888e-22  6.590375e-27   -3.322631e-13 
0.3135474      -8.312641e-34  -1.526823e-22  6.550455e-27   -3.726987e-13 
0.3145102      -9.182041e-34  -1.765206e-22  6.511098e-27   -4.173371e-13 
0.3154623      -1.012781e-33  -2.028861e-22  6.472301e-27   -4.663284e-13 
0.3164064      -1.115476e-33  -2.320587e-22  6.433948e-27   -5.204067e-13 
0.3173442      -1.22719e-33   -2.643092e-22  6.39598e-27    -5.806425e-13 
0.3182742      -1.348772e-33  -2.998329e-22  6.358442e-27   -6.477346e-13 
0.319198       -1.481338e-33  -3.38927e-22   6.321271e-27   -7.222739e-13 
0.3201155      -1.625692e-33  -3.818617e-22  6.284475e-27   -8.048482e-13 
0.3210269      -1.782371e-33  -4.28932e-22   6.248057e-27   -8.962501e-13 
0.3219334      -1.952377e-33  -4.805256e-22  6.211954e-27   -9.976169e-13 
0.322835       -2.137013e-33  -5.369817e-22  6.176161e-27   -1.110153e-12 
0.3237331      -2.337732e-33  -5.987381e-22  6.140638e-27   -1.234922e-12 
0.3246289      -2.556018e-33  -6.662941e-22  6.105341e-27   -1.372702e-12 
0.3255222      -2.793222e-33  -7.401248e-22  6.070275e-27   -1.52421e-12  
0.3264132      -3.05103e-33   -8.207212e-22  6.035433e-27   -1.69033e-12  
0.327303       -3.331553e-33  -9.087042e-22  6.000767e-27   -1.872029e-12 
0.3281905      -3.636433e-33  -1.004523e-21  5.966313e-27   -2.069686e-12 
0.3290756      -3.967613e-33  -1.108765e-21  5.932075e-27   -2.28399e-12  
0.3299584      -4.326548e-33  -1.222049e-21  5.898069e-27   -2.516365e-12 
0.3308389      -4.715378e-33  -1.345045e-21  5.864295e-27   -2.769421e-12 
0.3317159      -5.136145e-33  -1.47828e-21   5.830796e-27   -3.04563e-12  
0.3325917      -5.592547e-33  -1.622844e-21  5.797474e-27   -3.348308e-12 
0.3334653      -6.086997e-33  -1.779317e-21  5.764368e-27   -3.679712e-12 
0.3343355      -6.62219e-33   -1.948288e-21  5.731528e-27   -4.042246e-12 
0.3352033      -7.202241e-33  -2.130848e-21  5.698921e-27   -4.439574e-12 
0.3360701      -7.830882e-33  -2.328189e-21  5.6665e-27     -4.875985e-12 
0.3369346      -8.510642e-33  -2.541036e-21  5.634298e-27   -5.354873e-12 
0.3377957      -9.244104e-33  -2.770071e-21  5.602356e-27   -5.878909e-12 
0.3386546      -1.003552e-32  -3.016629e-21  5.570639e-27   -6.452205e-12 
0.3395102      -1.088837e-32  -3.281479e-21  5.539199e-27   -7.078512e-12 
0.3403624      -1.180866e-32  -3.565747e-21  5.508042e-27   -7.762727e-12 
0.3412114      -1.280218e-32  -3.870604e-21  5.477164e-27   -8.509661e-12 
0.342057       -1.387408e-32  -4.197234e-21  5.446556e-27   -9.324137e-12 
0.3429006      -1.503009e-32  -4.547362e-21  5.416169e-27   -1.021219e-11 
0.3437408      -1.627301e-32  -4.921911e-21  5.386046e-27   -1.117734e-11 
0.344579       -1.761014e-32  -5.322829e-21  5.356152e-27   -1.222623e-11 