# Probe 0 (0 0 0)
# Probe 1 (-0.02079268 0.01894303 4.634555e-17)
# Probe 2 (0.02084516 0.01902959 6.086361e-17)
# Probe 3 (-0.0002369365 0.02063675 -0.01158831)
# Time         0              1              2              3             
0              0              0              0              0             
1.199999e-06   9.500944e-10   9.500944e-10   9.500944e-10   9.500944e-10  
2.639996e-06   2.090203e-09   2.090203e-09   2.090203e-09   2.090203e-09  
4.367991e-06   3.458326e-09   3.458326e-09   3.458326e-09   3.458326e-09  
6.441582e-06   5.100062e-09   5.100062e-09   5.100062e-09   5.100062e-09  
8.92989e-06    7.070131e-09   7.070131e-09   7.070131e-09   7.070131e-09  
1.191586e-05   9.434191e-09   9.434191e-09   9.434191e-09   9.434191e-09  
1.549901e-05   1.227103e-08   1.227103e-08   1.227103e-08   1.227103e-08  
1.97988e-05    1.56752e-08    1.56752e-08    1.56752e-08    1.56752e-08   
2.495853e-05   1.976013e-08   1.976013e-08   1.976013e-08   1.976013e-08  
3.115017e-05   2.466194e-08   2.466194e-08   2.466194e-08   2.466194e-08  
3.858013e-05   3.054398e-08   3.054398e-08   3.054398e-08   3.054398e-08  
4.749602e-05   3.760221e-08   3.760221e-08   3.760221e-08   3.760221e-08  
5.819505e-05   4.60718e-08    4.60718e-08    4.60718e-08    4.60718e-08   
7.103374e-05   5.623484e-08   5.623484e-08   5.623484e-08   5.623484e-08  
8.644002e-05   6.842984e-08   6.842984e-08   6.842984e-08   6.842984e-08  
0.0001049275   8.306305e-08   8.306305e-08   8.306305e-08   8.306305e-08  
0.0001271124   1.006218e-07   1.006218e-07   1.006218e-07   1.006218e-07  
0.0001537338   1.216903e-07   1.216903e-07   1.216903e-07   1.216903e-07  
0.0001856788   1.469697e-07   1.469697e-07   1.469697e-07   1.469697e-07  
0.0002240123   1.773015e-07   1.773015e-07   1.773015e-07   1.773015e-07  
0.0002700107   2.136936e-07   2.136936e-07   2.136936e-07   2.136936e-07  
0.0003252078   2.573566e-07   2.573566e-07   2.573566e-07   2.573566e-07  
0.0003914421   3.097409e-07   3.097409e-07   3.097409e-07   3.097409e-07  
0.0004709212   3.725866e-07   3.725866e-07   3.725866e-07   3.725866e-07  
0.0005662961   4.479815e-07   4.479815e-07   4.479815e-07   4.479815e-07  
0.0006793159   5.372969e-07   5.372969e-07   5.372969e-07   5.372969e-07  
0.0008111872   6.414716e-07   6.414716e-07   6.414716e-07   6.414716e-07  
0.000963132    7.614526e-07   7.614526e-07   7.614526e-07   7.614526e-07  
0.001136365    8.981772e-07   8.981772e-07   8.981772e-07   8.981772e-07  
0.001332183    1.052641e-06   1.052641e-06   1.052641e-06   1.052641e-06  
0.001551911    1.225858e-06   1.225858e-06   1.225858e-06   1.225858e-06  
0.001796929    1.418878e-06   1.418878e-06   1.418878e-06   1.418878e-06  
0.002063757    1.628918e-06   1.628918e-06   1.628918e-06   1.628918e-06  
0.002343683    1.84909e-06    1.84909e-06    1.84909e-06    1.84909e-06   
0.00263608     2.078876e-06   2.078876e-06   2.078876e-06   2.078876e-06  
0.002941832    2.318944e-06   2.318944e-06   2.318944e-06   2.318944e-06  
0.003262223    2.570272e-06   2.570272e-06   2.570272e-06   2.570272e-06  
0.003594913    2.830996e-06   2.830996e-06   2.830996e-06   2.830996e-06  
0.003939809    3.101015e-06   3.101015e-06   3.101015e-06   3.101015e-06  
0.004297846    3.38103e-06    3.38103e-06    3.38103e-06    3.38103e-06   
0.004668547    3.670638e-06   3.670638e-06   3.670638e-06   3.670638e-06  
0.005053142    3.970765e-06   3.970765e-06   3.970765e-06   3.970765e-06  
0.00545128     4.281102e-06   4.281102e-06   4.281102e-06   4.281102e-06  
0.005863443    4.601987e-06   4.601987e-06   4.601987e-06   4.601987e-06  
0.006289562    4.933328e-06   4.933328e-06   4.933328e-06   4.933328e-06  
0.006730037    5.275394e-06   5.275394e-06   5.275394e-06   5.275394e-06  
0.007185665    5.628763e-06   5.628763e-06   5.628763e-06   5.628763e-06  
0.007657311    5.994056e-06   5.994056e-06   5.994056e-06   5.994056e-06  
0.008144949    6.371202e-06   6.371202e-06   6.371202e-06   6.371202e-06  
0.008648173    6.759838e-06   6.759838e-06   6.759838e-06   6.759838e-06  
0.009166391    7.159455e-06   7.159455e-06   7.159455e-06   7.159455e-06  
0.009699097    7.569613e-06   7.569613e-06   7.569613e-06   7.569613e-06  
0.01024713     7.990906e-06   7.990906e-06   7.990906e-06   7.990906e-06  
0.01081174     8.424232e-06   8.424232e-06   8.424232e-06   8.424232e-06  
0.01139293     8.869542e-06   8.869542e-06   8.869542e-06   8.869542e-06  
0.01198992     9.326168e-06   9.326168e-06   9.326168e-06   9.326168e-06  
0.01260244     9.793859e-06   9.793859e-06   9.793859e-06   9.793859e-06  
0.01323016     1.027228e-05   1.027228e-05   1.027228e-05   1.027228e-05  
0.01387301     1.076133e-05   1.076133e-05   1.076133e-05   1.076133e-05  
0.01453043     1.126052e-05   1.126052e-05   1.126052e-05   1.126052e-05  
0.01520218     1.176962e-05   1.176962e-05   1.176962e-05   1.176962e-05  
0.01588798     1.228834e-05   1.228834e-05   1.228834e-05   1.228834e-05  
0.01658742     1.281632e-05   1.281632e-05   1.281632e-05   1.281632e-05  
0.01730055     1.335354e-05   1.335354e-05   1.335354e-05   1.335354e-05  
0.01802633     1.389915e-05   1.389915e-05   1.389915e-05   1.389915e-05  
0.01876521     1.445344e-05   1.445344e-05   1.445344e-05   1.445344e-05  
0.01951654     1.501586e-05   1.501586e-05   1.501586e-05   1.501586e-05  
0.02028015     1.558624e-05   1.558624e-05   1.558624e-05   1.558624e-05  
0.02105586     1.616438e-05   1.616438e-05   1.616438e-05   1.616438e-05  
0.02184406     1.675051e-05   1.675051e-05   1.675051e-05   1.675051e-05  
0.02264517     1.734489e-05   1.734489e-05   1.734489e-05   1.734489e-05  
0.02345896     1.794728e-05   1.794728e-05   1.794728e-05   1.794728e-05  
0.02428443     1.855691e-05   1.855691e-05   1.855691e-05   1.855691e-05  
0.02511625     1.916976e-05   1.916976e-05   1.916976e-05   1.916976e-05  
0.02595019     1.978274e-05   1.978274e-05   1.978274e-05   1.978274e-05  
0.02678629     2.039584e-05   2.039584e-05   2.039584e-05   2.039584e-05  
0.02762526     2.10096e-05    2.10096e-05    2.10096e-05    2.10096e-05   
0.02846715     2.162403e-05   2.162403e-05   2.162403e-05   2.162403e-05  
0.02931196     2.223912e-05   2.223912e-05   2.223912e-05   2.223912e-05  
0.03015898     2.285436e-05   2.285436e-05   2.285436e-05   2.285436e-05  
0.03100897     2.347029e-05   2.347029e-05   2.347029e-05   2.347029e-05  
0.03186121     2.408637e-05   2.408637e-05   2.408637e-05   2.408637e-05  
0.0327157      2.47026e-05    2.47026e-05    2.47026e-05    2.47026e-05   
0.03357322     2.531954e-05   2.531954e-05   2.531954e-05   2.531954e-05  
0.03443303     2.593664e-05   2.593664e-05   2.593664e-05   2.593664e-05  
0.03529514     2.655391e-05   2.655391e-05   2.655391e-05   2.655391e-05  
0.03615958     2.717135e-05   2.717135e-05   2.717135e-05   2.717135e-05  
0.03702634     2.778897e-05   2.778897e-05   2.778897e-05   2.778897e-05  
0.03789545     2.840678e-05   2.840678e-05   2.840678e-05   2.840678e-05  
0.03876692     2.902477e-05   2.902477e-05   2.902477e-05   2.902477e-05  
0.03964077     2.964295e-05   2.964295e-05   2.964295e-05   2.964295e-05  
0.04051541     3.02602e-05    3.02602e-05    3.02602e-05    3.02602e-05   
0.04139245     3.087765e-05   3.087765e-05   3.087765e-05   3.087765e-05  
0.04227111     3.149475e-05   3.149475e-05   3.149475e-05   3.149475e-05  
0.04315218     3.211205e-05   3.211205e-05   3.211205e-05   3.211205e-05  
0.04403488     3.272899e-05   3.272899e-05   3.272899e-05   3.272899e-05  
0.04491922     3.334558e-05   3.334558e-05   3.334558e-05   3.334558e-05  
0.04580519     3.396183e-05   3.396183e-05   3.396183e-05   3.396183e-05  
0.04669199     3.457715e-05   3.457715e-05   3.457715e-05   3.457715e-05  
0.04758044     3.519214e-05   3.519214e-05   3.519214e-05   3.519214e-05  
0.04847055     3.580679e-05   3.580679e-05   3.580679e-05   3.580679e-05  
0.04936233     3.64211e-05    3.64211e-05    3.64211e-05    3.64211e-05   
0.05025579     3.703507e-05   3.703507e-05   3.703507e-05   3.703507e-05  
0.05115009     3.764815e-05   3.764815e-05   3.764815e-05   3.764815e-05  
0.05204607     3.826089e-05   3.826089e-05   3.826089e-05   3.826089e-05  
0.05294376     3.887332e-05   3.887332e-05   3.887332e-05   3.887332e-05  
0.05384144     3.948426e-05   3.948426e-05   3.948426e-05   3.948426e-05  
0.05473998     4.009432e-05   4.009432e-05   4.009432e-05   4.009432e-05  
0.05564022     4.070406e-05   4.070406e-05   4.070406e-05   4.070406e-05  
0.05654219     4.13135e-05    4.13135e-05    4.13135e-05    4.13135e-05   
0.05744502     4.192205e-05   4.192205e-05   4.192205e-05   4.192205e-05  
0.05834872     4.252972e-05   4.252972e-05   4.252972e-05   4.252972e-05  
0.05925328     4.313651e-05   4.313651e-05   4.313651e-05   4.313651e-05  
0.06015872     4.374243e-05   4.374243e-05   4.374243e-05   4.374243e-05  
0.06106502     4.434747e-05   4.434747e-05   4.434747e-05   4.434747e-05  
0.06197221     4.495165e-05   4.495165e-05   4.495165e-05   4.495165e-05  
0.06288115     4.555555e-05   4.555555e-05   4.555555e-05   4.555555e-05  
0.06379097     4.615858e-05   4.615858e-05   4.615858e-05   4.615858e-05  
0.06470168     4.676076e-05   4.676076e-05   4.676076e-05   4.676076e-05  
0.06561328     4.736208e-05   4.736208e-05   4.736208e-05   4.736208e-05  
0.06652666     4.796314e-05   4.796314e-05   4.796314e-05   4.796314e-05  
0.06744093     4.856335e-05   4.856335e-05   4.856335e-05   4.856335e-05  
0.06835521     4.916213e-05   4.916213e-05   4.916213e-05   4.916213e-05  
0.06927038     4.976006e-05   4.976006e-05   4.976006e-05   4.976006e-05  
0.07018735     5.035775e-05   5.035775e-05   5.035775e-05   5.035775e-05  
0.07110523     5.095461e-05   5.095461e-05   5.095461e-05   5.095461e-05  
0.07202402     5.155063e-05   5.155063e-05   5.155063e-05   5.155063e-05  
0.07294463     5.214641e-05   5.214641e-05   5.214641e-05   5.214641e-05  
0.07386616     5.274138e-05   5.274138e-05   5.274138e-05   5.274138e-05  
0.07478768     5.333492e-05   5.333492e-05   5.333492e-05   5.333492e-05  
0.07571013     5.392766e-05   5.392766e-05   5.392766e-05   5.392766e-05  
0.07663442     5.452017e-05   5.452017e-05   5.452017e-05   5.452017e-05  
0.07755963     5.511187e-05   5.511187e-05   5.511187e-05   5.511187e-05  
0.07848578     5.570277e-05   5.570277e-05   5.570277e-05   5.570277e-05  
0.07941192     5.629227e-05   5.629227e-05   5.629227e-05   5.629227e-05  
0.080339       5.688097e-05   5.688097e-05   5.688097e-05   5.688097e-05  
0.08126889     5.747006e-05   5.747006e-05   5.747006e-05   5.747006e-05  
0.08219972     5.805837e-05   5.805837e-05   5.805837e-05   5.805837e-05  
0.08313056     5.864528e-05   5.864528e-05   5.864528e-05   5.864528e-05  
0.08406328     5.923201e-05   5.923201e-05   5.923201e-05   5.923201e-05  
0.08499696     5.981795e-05   5.981795e-05   5.981795e-05   5.981795e-05  
0.08593159     6.040312e-05   6.040312e-05   6.040312e-05   6.040312e-05  
0.08686718     6.098751e-05   6.098751e-05   6.098751e-05   6.098751e-05  
0.08780372     6.157113e-05   6.157113e-05   6.157113e-05   6.157113e-05  
0.08874123     6.215398e-05   6.215398e-05   6.215398e-05   6.215398e-05  
0.08967971     6.273606e-05   6.273606e-05   6.273606e-05   6.273606e-05  
0.09062012     6.331799e-05   6.331799e-05   6.331799e-05   6.331799e-05  
0.09156053     6.389855e-05   6.389855e-05   6.389855e-05   6.389855e-05  
0.0925029      6.447897e-05   6.447897e-05   6.447897e-05   6.447897e-05  
0.09344722     6.505923e-05   6.505923e-05   6.505923e-05   6.505923e-05  
0.09439253     6.563874e-05   6.563874e-05   6.563874e-05   6.563874e-05  
0.09533883     6.621751e-05   6.621751e-05   6.621751e-05   6.621751e-05  
0.09628513     6.679494e-05   6.679494e-05   6.679494e-05   6.679494e-05  
0.09723341     6.737223e-05   6.737223e-05   6.737223e-05   6.737223e-05  
0.0981827      6.794879e-05   6.794879e-05   6.794879e-05   6.794879e-05  
0.09913398     6.852523e-05   6.852523e-05   6.852523e-05   6.852523e-05  
0.1000863      6.910094e-05   6.910094e-05   6.910094e-05   6.910094e-05  
0.1010396      6.967593e-05   6.967593e-05   6.967593e-05   6.967593e-05  
0.1019939      7.02502e-05    7.02502e-05    7.02502e-05    7.02502e-05   
0.1029492      7.082375e-05   7.082375e-05   7.082375e-05   7.082375e-05  
0.1039055      7.13966e-05    7.13966e-05    7.13966e-05    7.13966e-05   
0.1048629      7.196873e-05   7.196873e-05   7.196873e-05   7.196873e-05  
0.1058223      7.254078e-05   7.254078e-05   7.254078e-05   7.254078e-05  
0.1067828      7.311213e-05   7.311213e-05   7.311213e-05   7.311213e-05  
0.1077443      7.368278e-05   7.368278e-05   7.368278e-05   7.368278e-05  
0.1087068      7.425274e-05   7.425274e-05   7.425274e-05   7.425274e-05  
0.1096703      7.482201e-05   7.482201e-05   7.482201e-05   7.482201e-05  
0.1106349      7.539059e-05   7.539059e-05   7.539059e-05   7.539059e-05  
0.1116016      7.595912e-05   7.595912e-05   7.595912e-05   7.595912e-05  
0.1125694      7.652697e-05   7.652697e-05   7.652697e-05   7.652697e-05  
0.1135382      7.709414e-05   7.709414e-05   7.709414e-05   7.709414e-05  
0.1145081      7.766064e-05   7.766064e-05   7.766064e-05   7.766064e-05  
0.115479       7.822649e-05   7.822649e-05   7.822649e-05   7.822649e-05  
0.1164521      7.879229e-05   7.879229e-05   7.879229e-05   7.879229e-05  
0.1174262      7.935743e-05   7.935743e-05   7.935743e-05   7.935743e-05  
0.1184025      7.992254e-05   7.992254e-05   7.992254e-05   7.992254e-05  
0.1193799      8.0487e-05     8.0487e-05     8.0487e-05     8.0487e-05    
0.1203573      8.105019e-05   8.105019e-05   8.105019e-05   8.105019e-05  
0.1213368      8.161337e-05   8.161337e-05   8.161337e-05   8.161337e-05  
0.1223186      8.217653e-05   8.217653e-05   8.217653e-05   8.217653e-05  
0.1233025      8.273969e-05   8.273969e-05   8.273969e-05   8.273969e-05  
0.1242876      8.330221e-05   8.330221e-05   8.330221e-05   8.330221e-05  
0.1252738      8.386411e-05   8.386411e-05   8.386411e-05   8.386411e-05  
0.126261       8.442538e-05   8.442538e-05   8.442538e-05   8.442538e-05  
0.1272494      8.498603e-05   8.498603e-05   8.498603e-05   8.498603e-05  
0.1282389      8.554606e-05   8.554606e-05   8.554606e-05   8.554606e-05  
0.1292296      8.610548e-05   8.610548e-05   8.610548e-05   8.610548e-05  
0.1302202      8.666365e-05   8.666365e-05   8.666365e-05   8.666365e-05  
0.1312131      8.722186e-05   8.722186e-05   8.722186e-05   8.722186e-05  
0.1322083      8.778011e-05   8.778011e-05   8.778011e-05   8.778011e-05  
0.1332046      8.833776e-05   8.833776e-05   8.833776e-05   8.833776e-05  
0.1342032      8.889546e-05   8.889546e-05   8.889546e-05   8.889546e-05  
0.135203       8.945257e-05   8.945257e-05   8.945257e-05   8.945257e-05  
0.1362051      9.000973e-05   9.000973e-05   9.000973e-05   9.000973e-05  
0.1372083      9.056632e-05   9.056632e-05   9.056632e-05   9.056632e-05  
0.1382127      9.112232e-05   9.112232e-05   9.112232e-05   9.112232e-05  
0.1392183      9.167775e-05   9.167775e-05   9.167775e-05   9.167775e-05  
0.1402263      9.223325e-05   9.223325e-05   9.223325e-05   9.223325e-05  
0.1412366      9.278884e-05   9.278884e-05   9.278884e-05   9.278884e-05  
0.1422481      9.334386e-05   9.334386e-05   9.334386e-05   9.334386e-05  
0.1432608      9.389832e-05   9.389832e-05   9.389832e-05   9.389832e-05  
0.1442746      9.445223e-05   9.445223e-05   9.445223e-05   9.445223e-05  
0.1452897      9.500558e-05   9.500558e-05   9.500558e-05   9.500558e-05  
0.146306       9.555838e-05   9.555838e-05   9.555838e-05   9.555838e-05  
0.1473236      9.611063e-05   9.611063e-05   9.611063e-05   9.611063e-05  
0.1483423      9.666234e-05   9.666234e-05   9.666234e-05   9.666234e-05  
0.1493622      9.721351e-05   9.721351e-05   9.721351e-05   9.721351e-05  
0.1503834      9.776415e-05   9.776415e-05   9.776415e-05   9.776415e-05  
0.151407       9.831492e-05   9.831492e-05   9.831492e-05   9.831492e-05  
0.1524319      9.886517e-05   9.886517e-05   9.886517e-05   9.886517e-05  
0.153458       9.941489e-05   9.941489e-05   9.941489e-05   9.941489e-05  
0.1544866      9.996475e-05   9.996475e-05   9.996475e-05   9.996475e-05  
0.1555165      0.0001005141   0.0001005141   0.0001005141   0.0001005141  
0.1565489      0.0001010636   0.0001010636   0.0001010636   0.0001010636  
0.1575825      0.0001016126   0.0001016126   0.0001016126   0.0001016126  
0.1586174      0.0001021611   0.0001021611   0.0001021611   0.0001021611  
0.1596536      0.000102709    0.000102709    0.000102709    0.000102709   
0.1606911      0.0001032565   0.0001032565   0.0001032565   0.0001032565  
0.1617298      0.0001038035   0.0001038035   0.0001038035   0.0001038035  
0.1627699      0.00010435     0.00010435     0.00010435     0.00010435    
0.1638125      0.0001048967   0.0001048967   0.0001048967   0.0001048967  
0.1648564      0.0001054428   0.0001054428   0.0001054428   0.0001054428  
0.165903       0.0001059892   0.0001059892   0.0001059892   0.0001059892  
0.1669508      0.0001065351   0.0001065351   0.0001065351   0.0001065351  
0.1679987      0.0001070799   0.0001070799   0.0001070799   0.0001070799  
0.1690479      0.0001076241   0.0001076241   0.0001076241   0.0001076241  
0.1700997      0.0001081686   0.0001081686   0.0001081686   0.0001081686  
0.1711529      0.0001087126   0.0001087126   0.0001087126   0.0001087126  
0.1722074      0.0001092561   0.0001092561   0.0001092561   0.0001092561  
0.1732632      0.0001097992   0.0001097992   0.0001097992   0.0001097992  
0.1743205      0.0001103418   0.0001103418   0.0001103418   0.0001103418  
0.1753804      0.0001108847   0.0001108847   0.0001108847   0.0001108847  
0.1764417      0.0001114271   0.0001114271   0.0001114271   0.0001114271  
0.1775043      0.000111969    0.000111969    0.000111969    0.000111969   
0.1785683      0.0001125105   0.0001125105   0.0001125105   0.0001125105  
0.1796351      0.0001130523   0.0001130523   0.0001130523   0.0001130523  
0.1807033      0.0001135936   0.0001135936   0.0001135936   0.0001135936  
0.1817715      0.0001141337   0.0001141337   0.0001141337   0.0001141337  
0.1828411      0.0001146735   0.0001146735   0.0001146735   0.0001146735  
0.1839135      0.0001152135   0.0001152135   0.0001152135   0.0001152135  
0.1849873      0.0001157531   0.0001157531   0.0001157531   0.0001157531  
0.1860625      0.0001162922   0.0001162922   0.0001162922   0.0001162922  
0.1871406      0.0001168317   0.0001168317   0.0001168317   0.0001168317  
0.18822        0.0001173707   0.0001173707   0.0001173707   0.0001173707  
0.189301       0.0001179093   0.0001179093   0.0001179093   0.0001179093  
0.1903834      0.0001184475   0.0001184475   0.0001184475   0.0001184475  
0.1914672      0.0001189853   0.0001189853   0.0001189853   0.0001189853  
0.1925525      0.0001195227   0.0001195227   0.0001195227   0.0001195227  
0.1936392      0.0001200597   0.0001200597   0.0001200597   0.0001200597  
0.1947289      0.0001205971   0.0001205971   0.0001205971   0.0001205971  
0.1958186      0.0001211333   0.0001211333   0.0001211333   0.0001211333  
0.1969112      0.0001216698   0.0001216698   0.0001216698   0.0001216698  
0.1980053      0.000122206    0.000122206    0.000122206    0.000122206   
0.1991009      0.0001227418   0.0001227418   0.0001227418   0.0001227418  
0.2001981      0.0001232772   0.0001232772   0.0001232772   0.0001232772  
0.2012967      0.0001238122   0.0001238122   0.0001238122   0.0001238122  
0.2023968      0.0001243469   0.0001243469   0.0001243469   0.0001243469  
0.2034985      0.0001248812   0.0001248812   0.0001248812   0.0001248812  
0.2046017      0.0001254151   0.0001254151   0.0001254151   0.0001254151  
0.2057064      0.0001259487   0.0001259487   0.0001259487   0.0001259487  
0.2068127      0.0001264819   0.0001264819   0.0001264819   0.0001264819  
0.2079205      0.0001270148   0.0001270148   0.0001270148   0.0001270148  
0.2090298      0.0001275474   0.0001275474   0.0001275474   0.0001275474  
0.2101407      0.0001280796   0.0001280796   0.0001280796   0.0001280796  
0.2112501      0.00012861     0.00012861     0.00012861     0.00012861    
0.212361       0.0001291401   0.0001291401   0.0001291401   0.0001291401  
0.2134735      0.0001296698   0.0001296698   0.0001296698   0.0001296698  
0.2145875      0.0001301992   0.0001301992   0.0001301992   0.0001301992  
0.2157032      0.0001307283   0.0001307283   0.0001307283   0.0001307283  
0.2168204      0.0001312572   0.0001312572   0.0001312572   0.0001312572  
0.2179376      0.0001317849   0.0001317849   0.0001317849   0.0001317849  
0.2190533      0.0001323109   0.0001323109   0.0001323109   0.0001323109  
0.2201657      0.0001328343   0.0001328343   0.0001328343   0.0001328343  
0.221275       0.0001333552   0.0001333552   0.0001333552   0.0001333552  
0.2223812      0.0001338736   0.0001338736   0.0001338736   0.0001338736  
0.2234858      0.0001343903   0.0001343903   0.0001343903   0.0001343903  
0.2245888      0.0001349052   0.0001349052   0.0001349052   0.0001349052  
0.2256918      0.0001354192   0.0001354192   0.0001354192   0.0001354192  
0.2267963      0.0001359329   0.0001359329   0.0001359329   0.0001359329  
0.2279025      0.0001364463   0.0001364463   0.0001364463   0.0001364463  
0.2290102      0.0001369595   0.0001369595   0.0001369595   0.0001369595  
0.2301196      0.0001374725   0.0001374725   0.0001374725   0.0001374725  
0.2312289      0.0001379845   0.0001379845   0.0001379845   0.0001379845  
0.2323383      0.0001384955   0.0001384955   0.0001384955   0.0001384955  
0.2334476      0.0001390056   0.0001390056   0.0001390056   0.0001390056  
0.2345537      0.0001395133   0.0001395133   0.0001395133   0.0001395133  
0.2356567      0.0001400185   0.0001400185   0.0001400185   0.0001400185  
0.2367565      0.0001405214   0.0001405214   0.0001405214   0.0001405214  
0.2378546      0.0001410226   0.0001410226   0.0001410226   0.0001410226  
0.2389513      0.0001415222   0.0001415222   0.0001415222   0.0001415222  
0.2400479      0.0001420208   0.0001420208   0.0001420208   0.0001420208  
0.2411445      0.0001425186   0.0001425186   0.0001425186   0.0001425186  
0.2422427      0.0001430162   0.0001430162   0.0001430162   0.0001430162  
0.2433425      0.0001435136   0.0001435136   0.0001435136   0.0001435136  
0.2444423      0.0001440101   0.0001440101   0.0001440101   0.0001440101  
0.2455421      0.0001445057   0.0001445057   0.0001445057   0.0001445057  
0.2466419      0.0001450005   0.0001450005   0.0001450005   0.0001450005  
0.24774        0.0001454936   0.0001454936   0.0001454936   0.0001454936  
0.248835       0.0001459845   0.0001459845   0.0001459845   0.0001459845  
0.2499268      0.000146473    0.000146473    0.000146473    0.000146473   
0.2510155      0.0001469593   0.0001469593   0.0001469593   0.0001469593  
0.2521025      0.0001474441   0.0001474441   0.0001474441   0.0001474441  
0.253188       0.0001479273   0.0001479273   0.0001479273   0.0001479273  
0.2542735      0.0001484097   0.0001484097   0.0001484097   0.0001484097  
0.255359       0.0001488912   0.0001488912   0.0001488912   0.0001488912  
0.2564445      0.000149372    0.000149372    0.000149372    0.000149372   
0.2575315      0.0001498526   0.0001498526   0.0001498526   0.0001498526  
0.258617       0.0001503317   0.0001503317   0.0001503317   0.0001503317  
0.2597041      0.0001508107   0.0001508107   0.0001508107   0.0001508107  
0.2607912      0.0001512889   0.0001512889   0.0001512889   0.0001512889  
0.2618782      0.0001517663   0.0001517663   0.0001517663   0.0001517663  
0.2629637      0.0001522422   0.0001522422   0.0001522422   0.0001522422  
0.264046       0.0001527159   0.0001527159   0.0001527159   0.0001527159  
0.2651267      0.0001531882   0.0001531882   0.0001531882   0.0001531882  
0.2662074      0.0001536596   0.0001536596   0.0001536596   0.0001536596  
0.2672865      0.0001541297   0.0001541297   0.0001541297   0.0001541297  
0.2683656      0.0001545989   0.0001545989   0.0001545989   0.0001545989  
0.2694431      0.0001550667   0.0001550667   0.0001550667   0.0001550667  
0.2705191      0.0001555331   0.0001555331   0.0001555331   0.0001555331  
0.2715934      0.000155998    0.000155998    0.000155998    0.000155998   
0.2726662      0.0001564616   0.0001564616   0.0001564616   0.0001564616  
0.2737373      0.0001569237   0.0001569237   0.0001569237   0.0001569237  
0.274807       0.0001573844   0.0001573844   0.0001573844   0.0001573844  
0.2758766      0.0001578444   0.0001578444   0.0001578444   0.0001578444  
0.2769446      0.000158303    0.000158303    0.000158303    0.000158303   
0.278011       0.0001587602   0.0001587602   0.0001587602   0.0001587602  
0.2790759      0.000159216    0.000159216    0.000159216    0.000159216   
0.2801408      0.0001596712   0.0001596712   0.0001596712   0.0001596712  
0.2812041      0.000160125    0.000160125    0.000160125    0.000160125   
0.2822658      0.0001605774   0.0001605774   0.0001605774   0.0001605774  
0.283326       0.0001610285   0.0001610285   0.0001610285   0.0001610285  
0.2843862      0.000161479    0.000161479    0.000161479    0.000161479   
0.2854448      0.0001619281   0.0001619281   0.0001619281   0.0001619281  
0.2865034      0.0001623765   0.0001623765   0.0001623765   0.0001623765  
0.2875604      0.0001628236   0.0001628236   0.0001628236   0.0001628236  
0.2886174      0.0001632701   0.0001632701   0.0001632701   0.0001632701  
0.2896729      0.0001637153   0.0001637153   0.0001637153   0.0001637153  
0.2907284      0.0001641598   0.0001641598   0.0001641598   0.0001641598  
0.2917823      0.0001646031   0.0001646031   0.0001646031   0.0001646031  
0.2928362      0.0001650457   0.0001650457   0.0001650457   0.0001650457  
0.2938901      0.0001654877   0.0001654877   0.0001654877   0.0001654877  
0.2949455      0.0001659297   0.0001659297   0.0001659297   0.0001659297  
0.296001       0.0001663711   0.0001663711   0.0001663711   0.0001663711  
0.2970565      0.0001668119   0.0001668119   0.0001668119   0.0001668119  
0.2981119      0.0001672521   0.0001672521   0.0001672521   0.0001672521  
0.2991658      0.000167691    0.000167691    0.000167691    0.000167691   
0.3002197      0.0001681293   0.0001681293   0.0001681293   0.0001681293  
0.301272       0.0001685664   0.0001685664   0.0001685664   0.0001685664  
0.3023243      0.0001690029   0.0001690029   0.0001690029   0.0001690029  
0.303375       0.0001694381   0.0001694381   0.0001694381   0.0001694381  
0.304421       0.0001698708   0.0001698708   0.0001698708   0.0001698708  
0.3054639      0.0001703017   0.0001703017   0.0001703017   0.0001703017  
0.3065036      0.0001707307   0.0001707307   0.0001707307   0.0001707307  
0.3075418      0.0001711585   0.0001711585   0.0001711585   0.0001711585  
0.3085737      0.0001715832   0.0001715832   0.0001715832   0.0001715832  
0.3095905      0.0001720011   0.0001720011   0.0001720011   0.0001720011  
0.3105955      0.0001724137   0.0001724137   0.0001724137   0.0001724137  
0.3115889      0.000172821    0.000172821    0.000172821    0.000172821   
0.3125737      0.0001732243   0.0001732243   0.0001732243   0.0001732243  
0.3135474      0.0001736226   0.0001736226   0.0001736226   0.0001736226  
0.3145102      0.000174016    0.000174016    0.000174016    0.000174016   
0.3154623      0.0001744046   0.0001744046   0.0001744046   0.0001744046  
0.3164064      0.0001747895   0.0001747895   0.0001747895   0.0001747895  
0.3173442      0.0001751713   0.0001751713   0.0001751713   0.0001751713  
0.3182742      0.0001755496   0.0001755496   0.0001755496   0.0001755496  
0.319198       0.000175925    0.000175925    0.000175925    0.000175925   
0.3201155      0.0001762974   0.0001762974   0.0001762974   0.0001762974  
0.3210269      0.0001766669   0.0001766669   0.0001766669   0.0001766669  
0.3219334      0.0001770341   0.0001770341   0.0001770341   0.0001770341  
0.322835       0.000177399    0.000177399    0.000177399    0.000177399   
0.3237331      0.000177762    0.000177762    0.000177762    0.000177762   
0.3246289      0.0001781237   0.0001781237   0.0001781237   0.0001781237  
0.3255222      0.0001784841   0.0001784841   0.0001784841   0.0001784841  
0.3264132      0.0001788432   0.0001788432   0.0001788432   0.0001788432  
0.327303       0.0001792015   0.0001792015   0.0001792015   0.0001792015  
0.3281905      0.0001795584   0.0001795584   0.0001795584   0.0001795584  
0.3290756      0.0001799141   0.0001799141   0.0001799141   0.0001799141  
0.3299584      0.0001802685   0.0001802685   0.0001802685   0.0001802685  
0.3308389      0.0001806216   0.0001806216   0.0001806216   0.0001806216  
0.3317159      0.000180973    0.000180973    0.000180973    0.000180973   
0.3325917      0.0001813236   0.0001813236   0.0001813236   0.0001813236  
0.3334653      0.000181673    0.000181673    0.000181673    0.000181673   
0.3343355      0.0001820207   0.0001820207   0.0001820207   0.0001820207  
0.3352033      0.0001823672   0.0001823672   0.0001823672   0.0001823672  
0.3360701      0.0001827129   0.0001827129   0.0001827129   0.0001827129  
0.3369346      0.0001830574   0.0001830574   0.0001830574   0.0001830574  
0.3377957      0.0001834002   0.0001834002   0.0001834002   0.0001834002  
0.3386546      0.0001837419   0.0001837419   0.0001837419   0.0001837419  
0.3395102      0.0001840819   0.0001840819   0.0001840819   0.0001840819  
0.3403624      0.0001844203   0.0001844203   0.0001844203   0.0001844203  
0.3412114      0.0001847571   0.0001847571   0.0001847571   0.0001847571  
0.342057       0.0001850924   0.0001850924   0.0001850924   0.0001850924  
0.3429006      0.0001854265   0.0001854265   0.0001854265   0.0001854265  
0.3437408      0.000185759    0.000185759    0.000185759    0.000185759   
0.344579       0.0001860905   0.0001860905   0.0001860905   0.0001860905  