# Probe 0 (0 0 0)
# Probe 1 (-0.02079268 0.01894303 4.634555e-17)
# Probe 2 (0.02084516 0.01902959 6.086361e-17)
# Probe 3 (-0.0002369365 0.02063675 -0.01158831)
# Time         0              1              2              3             
0              0              0              0              0             
1.199999e-06   0              0              0              0             
2.639996e-06   0              0              0              0             
4.367991e-06   0              0              0              0             
6.441582e-06   0              0              0              0             
8.92989e-06    0              0              0              0             
1.191586e-05   0              0              0              0             
1.549901e-05   0              0              0              0             
1.97988e-05    0              0              0              0             
2.495853e-05   0              0              0              0             
3.115017e-05   0              0              0              0             
3.858013e-05   0              0              0              0             
4.749602e-05   0              0              0              0             
5.819505e-05   0              0              0              0             
7.103374e-05   0              0              0              0             
8.644002e-05   0              0              0              0             
0.0001049275   0              0              0              0             
0.0001271124   0              0              0              0             
0.0001537338   0              0              0              0             
0.0001856788   0              0              0              0             
0.0002240123   0              0              0              0             
0.0002700107   0              0              0              0             
0.0003252078   0              0              0              0             
0.0003914421   0              0              0              0             
0.0004709212   0              0              0              0             
0.0005662961   0              0              0              0             
0.0006793159   0              0              0              0             
0.0008111872   0              0              0              0             
0.000963132    0              0              0              0             
0.001136365    0              0              0              0             
0.001332183    0              0              0              0             
0.001551911    0              0              0              0             
0.001796929    0              0              0              0             
0.002063757    0              0              0              0             
0.002343683    0              0              0              0             
0.00263608     0              0              0              0             
0.002941832    0              0              0              0             
0.003262223    0              0              0              0             
0.003594913    0              0              0              0             
0.003939809    0              0              0              0             
0.004297846    0              0              0              0             
0.004668547    0              0              0              0             
0.005053142    0              0              0              0             
0.00545128     0              0              0              0             
0.005863443    0              0              0              0             
0.006289562    0              0              0              0             
0.006730037    0              0              0              0             
0.007185665    0              0              0              0             
0.007657311    0              0              0              0             
0.008144949    0              0              0              0             
0.008648173    0              0              0              0             
0.009166391    0              0              0              0             
0.009699097    0              0              0              0             
0.01024713     0              0              0              0             
0.01081174     0              0              0              0             
0.01139293     0              0              0              0             
0.01198992     0              0              0              0             
0.01260244     0              0              0              0             
0.01323016     0              0              0              0             
0.01387301     0              0              0              0             
0.01453043     0              0              0              0             
0.01520218     0              0              0              0             
0.01588798     0              0              0              0             
0.01658742     0              0              0              0             
0.01730055     0              0              0              0             
0.01802633     0              0              0              0             
0.01876521     0              0              0              0             
0.01951654     0              0              0              0             
0.02028015     0              0              0              0             
0.02105586     0              0              0              0             
0.02184406     0              0              0              0             
0.02264517     0              0              0              0             
0.02345896     0              0              0              0             
0.02428443     0              0              0              0             
0.02511625     0              0              0              0             
0.02595019     0              0              0              0             
0.02678629     0              0              0              0             
0.02762526     0              0              0              0             
0.02846715     0              0              0              0             
0.02931196     0              0              0              0             
0.03015898     0              0              0              0             
0.03100897     0              0              0              0             
0.03186121     0              0              0              0             
0.0327157      0              0              0              0             
0.03357322     0              0              0              0             
0.03443303     0              0              0              0             
0.03529514     0              0              0              0             
0.03615958     0              0              0              0             
0.03702634     0              0              0              0             
0.03789545     0              0              0              0             
0.03876692     0              0              0              0             
0.03964077     0              0              0              0             
0.04051541     0              0              0              0             
0.04139245     0              0              0              0             
0.04227111     0              0              0              0             
0.04315218     0              0              0              0             
0.04403488     0              0              0              0             
0.04491922     0              0              0              0             
0.04580519     0              0              0              0             
0.04669199     0              0              0              0             
0.04758044     0              0              0              0             
0.04847055     0              0              0              0             
0.04936233     0              0              0              0             
0.05025579     0              0              0              0             
0.05115009     0              0              0              0             
0.05204607     0              0              0              0             
0.05294376     0              0              0              0             
0.05384144     0              0              0              0             
0.05473998     0              0              0              0             
0.05564022     0              0              0              0             
0.05654219     0              0              0              0             
0.05744502     0              0              0              0             
0.05834872     0              0              0              0             
0.05925328     0              0              0              0             
0.06015872     0              0              0              0             
0.06106502     0              0              0              0             
0.06197221     0              0              0              0             
0.06288115     0              0              0              0             
0.06379097     0              0              0              0             
0.06470168     0              0              0              0             
0.06561328     0              0              0              0             
0.06652666     0              0              0              0             
0.06744093     0              0              0              0             
0.06835521     0              0              0              0             
0.06927038     0              0              0              0             
0.07018735     0              0              0              0             
0.07110523     0              0              0              0             
0.07202402     0              0              0              0             
0.07294463     0              0              0              0             
0.07386616     0              0              0              0             
0.07478768     0              0              0              0             
0.07571013     0              0              0              0             
0.07663442     0              0              0              0             
0.07755963     0              0              0              0             
0.07848578     0              0              0              0             
0.07941192     0              0              0              0             
0.080339       0              0              0              0             
0.08126889     0              0              0              0             
0.08219972     0              0              0              0             
0.08313056     0              0              0              0             
0.08406328     0              0              0              0             
0.08499696     0              0              0              0             
0.08593159     0              0              0              0             
0.08686718     0              0              0              0             
0.08780372     0              0              0              0             
0.08874123     0              0              0              0             
0.08967971     0              0              0              0             
0.09062012     0              0              0              0             
0.09156053     0              0              0              0             
0.0925029      0              0              0              0             
0.09344722     0              0              0              0             
0.09439253     0              0              0              0             
0.09533883     0              0              0              0             
0.09628513     0              0              0              0             
0.09723341     0              0              0              0             
0.0981827      0              0              0              0             
0.09913398     0              0              0              0             
0.1000863      0              0              0              0             
0.1010396      0              0              0              0             
0.1019939      0              0              0              0             
0.1029492      0              0              0              0             
0.1039055      0              0              0              0             
0.1048629      0              0              0              0             
0.1058223      0              0              0              0             
0.1067828      0              0              0              0             
0.1077443      0              0              0              0             
0.1087068      0              0              0              0             
0.1096703      0              0              0              0             
0.1106349      0              0              0              0             
0.1116016      0              0              0              0             
0.1125694      0              0              0              0             
0.1135382      0              0              0              0             
0.1145081      0              0              0              0             
0.115479       0              0              0              0             
0.1164521      0              0              0              0             
0.1174262      0              0              0              0             
0.1184025      0              0              0              0             
0.1193799      0              0              0              0             
0.1203573      0              0              0              0             
0.1213368      0              0              0              0             
0.1223186      0              0              0              0             
0.1233025      0              0              0              0             
0.1242876      0              0              0              0             
0.1252738      0              0              0              0             
0.126261       0              0              0              0             
0.1272494      0              0              0              0             
0.1282389      0              0              0              0             
0.1292296      0              0              0              0             
0.1302202      0              0              0              0             
0.1312131      0              0              0              0             
0.1322083      0              0              0              0             
0.1332046      0              0              0              0             
0.1342032      0              0              0              0             
0.135203       0              0              0              0             
0.1362051      0              0              0              0             
0.1372083      0              0              0              0             
0.1382127      0              0              0              0             
0.1392183      0              0              0              0             
0.1402263      0              0              0              0             
0.1412366      0              0              0              0             
0.1422481      0              0              0              0             
0.1432608      0              0              0              0             
0.1442746      0              0              0              0             
0.1452897      0              0              0              0             
0.146306       0              0              0              0             
0.1473236      0              0              0              0             
0.1483423      0              0              0              0             
0.1493622      0              0              0              0             
0.1503834      0              0              0              0             
0.151407       0              0              0              0             
0.1524319      0              0              0              0             
0.153458       0              0              0              0             
0.1544866      0              0              0              0             
0.1555165      0              0              0              0             
0.1565489      0              0              0              0             
0.1575825      0              0              0              0             
0.1586174      0              0              0              0             
0.1596536      0              0              0              0             
0.1606911      0              0              0              0             
0.1617298      0              0              0              0             
0.1627699      0              0              0              0             
0.1638125      0              0              0              0             
0.1648564      0              0              0              0             
0.165903       0              0              0              0             
0.1669508      0              0              0              0             
0.1679987      0              0              0              0             
0.1690479      0              0              0              0             
0.1700997      0              0              0              0             
0.1711529      0              0              0              0             
0.1722074      0              0              0              0             
0.1732632      0              0              0              0             
0.1743205      0              0              0              0             
0.1753804      0              0              0              0             
0.1764417      0              0              0              0             
0.1775043      0              0              0              0             
0.1785683      0              0              0              0             
0.1796351      0              0              0              0             
0.1807033      0              0              0              0             
0.1817715      0              0              0              0             
0.1828411      0              0              0              0             
0.1839135      0              0              0              0             
0.1849873      0              0              0              0             
0.1860625      0              0              0              0             
0.1871406      0              0              0              0             
0.18822        0              0              0              0             
0.189301       0              0              0              0             
0.1903834      0              0              0              0             
0.1914672      0              0              0              0             
0.1925525      0              0              0              0             
0.1936392      0              0              0              0             
0.1947289      0              0              0              0             
0.1958186      0              0              0              0             
0.1969112      0              0              0              0             
0.1980053      0              0              0              0             
0.1991009      0              0              0              0             
0.2001981      0              0              0              0             
0.2012967      0              0              0              0             
0.2023968      0              0              0              0             
0.2034985      0              0              0              0             
0.2046017      0              0              0              0             
0.2057064      0              0              0              0             
0.2068127      0              0              0              0             
0.2079205      0              0              0              0             
0.2090298      0              0              0              0             
0.2101407      0              0              0              0             
0.2112501      0              0              0              0             
0.212361       0              0              0              0             
0.2134735      0              0              0              0             
0.2145875      0              0              0              0             
0.2157032      0              0              0              0             
0.2168204      0              0              0              0             
0.2179376      0              0              0              0             
0.2190533      0              0              0              0             
0.2201657      0              0              0              0             
0.221275       0              0              0              0             
0.2223812      0              0              0              0             
0.2234858      0              0              0              0             
0.2245888      0              0              0              0             
0.2256918      0              0              0              0             
0.2267963      0              0              0              0             
0.2279025      0              0              0              0             
0.2290102      0              0              0              0             
0.2301196      0              0              0              0             
0.2312289      0              0              0              0             
0.2323383      0              0              0              0             
0.2334476      0              0              0              0             
0.2345537      0              0              0              0             
0.2356567      0              0              0              0             
0.2367565      0              0              0              0             
0.2378546      0              0              0              0             
0.2389513      0              0              0              0             
0.2400479      0              0              0              0             
0.2411445      0              0              0              0             
0.2422427      0              0              0              0             
0.2433425      0              0              0              0             
0.2444423      0              0              0              0             
0.2455421      0              0              0              0             
0.2466419      0              0              0              0             
0.24774        0              0              0              0             
0.248835       0              0              0              0             
0.2499268      0              0              0              0             
0.2510155      0              0              0              0             
0.2521025      0              0              0              0             
0.253188       0              0              0              0             
0.2542735      0              0              0              0             
0.255359       0              0              0              0             
0.2564445      0              0              0              0             
0.2575315      0              0              0              0             
0.258617       0              0              0              0             
0.2597041      0              0              0              0             
0.2607912      0              0              0              0             
0.2618782      0              0              0              0             
0.2629637      0              0              0              0             
0.264046       0              0              0              0             
0.2651267      0              0              0              0             
0.2662074      0              0              0              0             
0.2672865      0              0              0              0             
0.2683656      0              0              0              0             
0.2694431      0              0              0              0             
0.2705191      0              0              0              0             
0.2715934      0              0              0              0             
0.2726662      0              0              0              0             
0.2737373      0              0              0              0             
0.274807       0              0              0              0             
0.2758766      0              0              0              0             
0.2769446      0              0              0              0             
0.278011       0              0              0              0             
0.2790759      0              0              0              0             
0.2801408      0              0              0              0             
0.2812041      0              0              0              0             
0.2822658      0              0              0              0             
0.283326       0              0              0              0             
0.2843862      0              0              0              0             
0.2854448      0              0              0              0             
0.2865034      0              0              0              0             
0.2875604      0              0              0              0             
0.2886174      0              0              0              0             
0.2896729      0              0              0              0             
0.2907284      0              0              0              0             
0.2917823      0              0              0              0             
0.2928362      0              0              0              0             
0.2938901      0              0              0              0             
0.2949455      0              0              0              0             
0.296001       0              0              0              0             
0.2970565      0              0              0              0             
0.2981119      0              0              0              0             
0.2991658      0              0              0              0             
0.3002197      0              0              0              0             
0.301272       0              0              0              0             
0.3023243      0              0              0              0             
0.303375       0              0              0              0             
0.304421       0              0              0              0             
0.3054639      0              0              0              0             
0.3065036      0              0              0              0             
0.3075418      0              0              0              0             
0.3085737      0              0              0              0             
0.3095905      0              0              0              0             
0.3105955      0              0              0              0             
0.3115889      0              0              0              0             
0.3125737      0              0              0              0             
0.3135474      0              0              0              0             
0.3145102      0              0              0              0             
0.3154623      0              0              0              0             
0.3164064      0              0              0              0             
0.3173442      0              0              0              0             
0.3182742      0              0              0              0             
0.319198       0              0              0              0             
0.3201155      0              0              0              0             
0.3210269      0              0              0              0             
0.3219334      0              0              0              0             
0.322835       0              0              0              0             
0.3237331      0              0              0              0             
0.3246289      0              0              0              0             
0.3255222      0              0              0              0             
0.3264132      0              0              0              0             
0.327303       0              0              0              0             
0.3281905      0              0              0              0             
0.3290756      0              0              0              0             
0.3299584      0              0              0              0             
0.3308389      0              0              0              0             
0.3317159      0              0              0              0             
0.3325917      0              0              0              0             
0.3334653      0              0              0              0             
0.3343355      0              0              0              0             
0.3352033      0              0              0              0             
0.3360701      0              0              0              0             
0.3369346      0              0              0              0             
0.3377957      0              0              0              0             
0.3386546      0              0              0              0             
0.3395102      0              0              0              0             
0.3403624      0              0              0              0             
0.3412114      0              0              0              0             
0.342057       0              0              0              0             
0.3429006      0              0              0              0             
0.3437408      0              0              0              0             
0.344579       0              0              0              0             