# Probe 0 (0 0 0)
# Probe 1 (0 0.011 0)
# Time         0              1             
0              0              0             
1.199999e-06   0              4.412859e-147 
2.639996e-06   9.998382e-192  6.18594e-141  
4.367991e-06   8.540557e-184  8.300928e-140 
6.441582e-06   6.844764e-182  3.000145e-138 
8.92989e-06    8.804426e-180  3.589488e-136 
1.191586e-05   3.780468e-177  4.044138e-134 
1.549901e-05   1.590865e-174  3.909143e-132 
1.97988e-05    5.706828e-172  3.330552e-130 
2.495853e-05   1.790804e-169  2.568585e-128 
3.115017e-05   5.04619e-167   1.830791e-126 
3.858013e-05   1.30355e-164   1.225759e-124 
4.749602e-05   3.137748e-162  7.811665e-123 
5.819505e-05   7.134612e-160  4.7896e-121   
7.103374e-05   1.549635e-157  2.849564e-119 
8.644002e-05   3.244932e-155  1.656331e-117 
0.0001049275   6.600058e-153  9.456647e-116 
0.0001271124   1.312212e-150  5.324876e-114 
0.0001537338   2.564017e-148  2.965097e-112 
0.0001856788   4.94433e-146   1.634776e-110 
0.0002240123   9.441435e-144  8.918458e-109 
0.0002700107   1.789126e-141  4.795434e-107 
0.0003252078   3.365193e-139  2.517294e-105 
0.0003914421   6.253394e-137  1.265404e-103 
0.0004709212   1.132058e-134  6.021926e-102 
0.0005662961   1.980372e-132  2.756887e-100 
0.0006804389   3.38043e-130   1.220348e-98  
0.0008138772   5.169419e-128  4.852112e-97  
0.0009672442   6.563759e-126  1.647234e-95  
0.001141292    6.681832e-124  4.733739e-94  
0.001336801    5.450364e-122  1.159627e-92  
0.00155466     3.619385e-120  2.448918e-91  
0.00178461     1.620297e-118  3.792855e-90  
0.002015358    4.079946e-117  3.878747e-89  
0.002246213    6.386187e-116  2.911949e-88  
0.002477068    7.103582e-115  1.746344e-87  
0.002707869    6.13245e-114   8.827583e-87  
0.00293867     4.360223e-113  3.902361e-86  
0.003169418    2.652159e-112  1.545941e-85  
0.003400219    1.422807e-111  5.593486e-85  
0.003631074    6.864736e-111  1.873111e-84  
0.003862036    3.028699e-110  5.867824e-84  
0.004093158    1.237242e-109  1.734047e-83  
0.004324388    4.722954e-109  4.864284e-83  
0.004555833    1.698665e-108  1.302918e-82  
0.004787493    5.792329e-108  3.347223e-82  
0.005019369    1.882456e-107  8.278505e-82  
0.00525157     5.85852e-107   1.978339e-81  
0.005484096    1.751736e-106  4.580358e-81  
0.005717004    5.05047e-106   1.030016e-80  
0.005950294    1.407549e-105  2.254841e-80  
0.006184023    3.802601e-105  4.814529e-80  
0.006418138    9.974774e-105  1.004111e-79  
0.006652695    2.546342e-104  2.048877e-79  
0.006887695    6.334495e-104  4.095533e-79  
0.007123141    1.538026e-103  8.029498e-79  
0.007359035    3.650322e-103  1.545728e-78  
0.007595435    8.48266e-103   2.925281e-78  
0.007832342    1.932282e-102  5.447618e-78  
0.008069759    4.318994e-102  9.991409e-78  
0.008307689    9.483401e-102  1.806283e-77  
0.008546192    2.048094e-101  3.221665e-77  
0.008785269    4.354291e-101  5.672953e-77  
0.009024924    9.119318e-101  9.868023e-77  
0.009265161    1.882212e-100  1.696504e-76  
0.009505922    3.829018e-100  2.883319e-76  
0.009747271    7.680911e-100  4.846787e-76  
0.009989209    1.519878e-99   8.061526e-76  
0.01023168     2.96767e-99    1.327156e-75  
0.01047475     5.722446e-99   2.163847e-75  
0.01071835     1.090321e-98   3.495231e-75  
0.01096256     2.054457e-98   5.596302e-75  
0.01120737     3.830119e-98   8.884963e-75  
0.01145273     7.065677e-98   1.399008e-74  
0.0116987      1.2903e-97     2.185629e-74  
0.01194522     2.333199e-97   3.388481e-74  
0.01219236     4.180711e-97   5.215374e-74  
0.01244005     7.424609e-97   7.970504e-74  
0.01268837     1.307413e-96   1.209924e-73  
0.01293725     2.282955e-96   1.824521e-73  
0.01318676     3.954112e-96   2.734012e-73  
0.0134369      6.793929e-96   4.072e-73     
0.01368762     1.158075e-95   6.028478e-73  
0.01393891     1.958934e-95   8.873424e-73  
0.01419077     3.289589e-95   1.298838e-72  
0.01444322     5.486137e-95   1.890976e-72  
0.01469619     9.087118e-95   2.738391e-72  
0.01494968     1.495136e-94   3.944914e-72  
0.01520369     2.443902e-94   5.654021e-72  
0.01545822     3.969243e-94   8.063447e-72  
0.01571328     6.406105e-94   1.14441e-71   
0.01596888     1.027565e-93   1.616614e-71  
0.016225       1.638344e-93   2.273261e-71  
0.01648159     2.596615e-93   3.182217e-71  
0.01673872     4.091887e-93   4.435432e-71  
0.01699639     6.412882e-93   6.15638e-71   
0.01725453     9.995253e-93   8.509457e-71  
0.01751315     1.549638e-92   1.171429e-70  
0.01777231     2.390477e-92   1.606377e-70  
0.01803195     3.669061e-92   2.194296e-70  
0.01829208     5.603922e-92   2.986066e-70  
0.01855269     8.518191e-92   4.048529e-70  
0.01881385     1.288819e-91   5.469679e-70  
0.0190755      1.940902e-91   7.36366e-70   
0.01933764     2.909559e-91   9.879313e-70  
0.0196002      4.341727e-91   1.320873e-69  
0.01986325     6.450602e-91   1.760233e-69  
0.0201268      9.542933e-91   2.338246e-69  
0.02039077     1.405772e-90   3.096182e-69  
0.02065525     2.062558e-90   4.087387e-69  
0.02092015     3.014089e-90   5.379561e-69  
0.02118548     4.387376e-90   7.059157e-69  
0.02145125     6.361653e-90   9.236117e-69  
0.02171745     9.18955e-90    1.204988e-68  
0.02198408     1.322505e-89   1.567681e-68  
0.02225123     1.896556e-89   2.034084e-68  
0.02251881     2.710208e-89   2.63213e-68   
0.02278676     3.859154e-89   3.396702e-68  
0.02305515     5.476688e-89   4.37196e-68   
0.02332399     7.746609e-89   5.612852e-68  
0.02359326     1.092231e-88   7.187854e-68  
0.02386299     1.535124e-88   9.181956e-68  
0.02413309     2.150472e-88   1.612845e-67  
0.02440364     3.002424e-88   2.067447e-67  
0.02467456     4.177222e-88   2.643657e-67  
0.02494594     5.79205e-88    3.37259e-67   
0.02521769     8.003886e-88   4.292551e-67  
0.02548982     1.102385e-87   5.451286e-67  
0.02576241     1.513609e-87   6.908516e-67  
0.02603539     2.071758e-87   8.737516e-67  
0.02630874     2.827121e-87   1.102952e-66  
0.02658256     3.846852e-87   1.389855e-66  
0.02685676     5.219415e-87   1.748439e-66  
0.02713135     7.061936e-87   2.196105e-66  
0.02740633     9.52923e-87    2.754429e-66  
0.02768161     1.282435e-86   3.449934e-66  
0.02795729     1.721562e-86   4.315852e-66  
0.02823336     2.305448e-86   5.393152e-66  
0.02850975     3.080122e-86   6.732091e-66  
0.02878653     4.106744e-86   8.395542e-66  
0.0290637      5.465326e-86   1.046081e-65  
0.02934119     7.259535e-86   1.302236e-65  
0.029619       9.624583e-86   1.619695e-65  
0.0298972      1.273782e-85   2.012964e-65  
0.03017573     1.682762e-85   2.499618e-65  
0.03045457     2.219072e-85   3.101308e-65  
0.03073382     2.921291e-85   3.844772e-65  
0.03101339     3.838871e-85   4.76225e-65   
0.03129328     5.035696e-85   5.893222e-65  
0.0315735      6.594024e-85   7.285723e-65  
0.03185412     8.619955e-85   8.998641e-65  
0.03213507     1.124876e-84   1.110242e-64  
0.03241634     1.465375e-84   1.368268e-64  
0.03269794     1.905697e-84   1.68429e-64   
0.03297987     2.474161e-84   2.070773e-64  
0.03326213     3.206821e-84   2.542702e-64  
0.03354472     4.14953e-84    3.118058e-64  
0.03382764     5.36024e-84    3.818351e-64  
0.03411098     6.912978e-84   4.669582e-64  
0.03439464     8.900302e-84   5.702247e-64  
0.03467864     1.143931e-83   6.952884e-64  
0.03496298     1.467771e-83   8.46491e-64   
0.03524765     1.880117e-83   1.028979e-63  
0.03553266     2.404326e-83   1.248848e-63  
0.03581801     3.069743e-83   1.513303e-63  
0.0361036      3.912911e-83   1.830739e-63  
0.03638954     4.980189e-83   2.211236e-63  
0.03667582     6.329417e-83   2.666553e-63  
0.03696244     8.032954e-83   3.210491e-63  
0.0372494      1.018128e-82   3.859235e-63  
0.03753662     1.288655e-82   4.631474e-63  
0.03782418     1.629027e-82   5.549529e-63  
0.03811199     2.056707e-82   6.63889e-63   
0.03840016     2.593795e-82   7.929919e-63  
0.03868867     3.267761e-82   9.457628e-63  
0.03897743     4.112345e-82   1.126207e-62  
0.03926655     5.169887e-82   1.339082e-62  
0.03955593     6.492149e-82   1.589774e-62  
0.03984565     8.144033e-82   1.884655e-62  
0.04013564     1.020477e-81   2.230905e-62  
0.04042598     1.277375e-81   2.637046e-62  
0.04071668     1.597325e-81   3.112796e-62  
0.04100763     1.995251e-81   3.66913e-62   
0.04129894     2.489699e-81   4.319002e-62  
0.04159052     3.10313e-81    5.076891e-62  
0.04188236     3.863222e-81   5.959572e-62  
0.04217456     4.804216e-81   6.986584e-62  
0.04246702     5.967788e-81   8.179643e-62  
0.04275985     7.40598e-81    9.564306e-62  
0.04305294     9.181981e-81   1.116887e-61  
0.0433463      1.137331e-80   1.302591e-61  
0.04363993     1.407476e-80   1.517249e-61  
0.04393393     1.740292e-80   1.765144e-61  
0.04422819     2.149805e-80   2.050995e-61  
0.04452273     2.653147e-80   2.380221e-61  
0.04481754     3.271168e-80   2.758969e-61  
0.04511262     4.029195e-80   3.194193e-61  
0.04540798     4.957945e-80   3.693757e-61  
0.04570361     6.094662e-80   4.266552e-61  
0.04599942     7.483942e-80   4.922399e-61  
0.04629551     9.180565e-80   5.672771e-61  
0.04659188     1.125024e-79   6.530424e-61  
0.04688852     1.377204e-79   7.50972e-61   
0.04718544     1.684108e-79   8.626801e-61  
0.04748254     2.057048e-79   9.899394e-61  
0.04777993     2.509899e-79   1.134827e-60  
0.04807759     3.059204e-79   1.299642e-60  
0.04837553     3.724788e-79   1.486966e-60  
0.04867375     4.530377e-79   1.699693e-60  
0.04897216     5.503906e-79   1.940987e-60  
0.04927085     6.679342e-79   2.214542e-60  
0.04956982     8.096994e-79   2.524428e-60  
0.04986907     9.804854e-79   2.875196e-60  
0.05016852     1.185933e-78   3.271805e-60  
0.05046824     1.432889e-78   3.720042e-60  
0.05076825     1.729412e-78   4.226245e-60  
0.05106845     2.084924e-78   4.797302e-60  
0.05136894     2.510808e-78   5.441268e-60  
0.05166971     3.020404e-78   6.166958e-60  
0.05197067     3.629306e-78   6.983937e-60  
0.05227192     4.356271e-78   7.903382e-60  
0.05257336     5.222917e-78   8.937163e-60  
0.05287509     6.255295e-78   1.009918e-59  
0.05317701     7.483318e-78   1.140419e-59  
0.05347922     8.942906e-78   1.286945e-59  
0.05378162     1.067527e-77   1.451327e-59  
0.05408431     1.272998e-77   1.635707e-59  
0.0543872      1.516397e-77   1.842352e-59  
0.05469038     1.804506e-77   2.073919e-59  
0.05499375     2.145062e-77   2.333208e-59  
0.05529732     2.547178e-77   2.6234e-59    
0.05560118     3.021665e-77   2.948146e-59  
0.05590524     3.580833e-77   3.311303e-59  
0.05620949     4.239191e-77   3.717255e-59  
0.05651404     5.013819e-77   4.171016e-59  
0.05681878     5.923984e-77   4.677866e-59  
0.05712372     6.99238e-77    5.243819e-59  
0.05742886     8.245352e-77   5.875538e-59  
0.05773419     9.713419e-77   6.580405e-59  
0.05803973     1.143195e-76   7.366615e-59  
0.05834546     1.344187e-76   8.243241e-59  
0.05865139     1.579056e-76   9.220337e-59  
0.05895752     1.853261e-76   1.030902e-58  
0.05926385     2.173094e-76   1.152156e-58  
0.05957038     2.545793e-76   1.287155e-58  
0.0598771      2.979706e-76   1.437406e-58  
0.06018403     3.484434e-76   1.604575e-58  
0.06049106     4.070842e-76   1.790438e-58  
0.06079829     4.751826e-76   1.997081e-58  
0.06110572     5.542008e-76   2.226742e-58  
0.06141336     6.458114e-76   2.481887e-58  
0.06172119     7.519335e-76   2.765231e-58  
0.06202923     8.747534e-76   3.079762e-58  
0.06233747     1.01678e-75    3.428769e-58  
0.06264581     1.180809e-75   3.815735e-58  
0.06295435     1.37015e-75    4.244735e-58  
0.0632631      1.58854e-75    4.720129e-58  
0.06357205     1.840261e-75   5.246717e-58  
0.0638811      2.130097e-75   5.829578e-58  
0.06419035     2.463699e-75   6.474682e-58  
0.06449981     2.847409e-75   7.188397e-58  
0.06480948     3.288435e-75   7.977674e-58  
0.06511935     3.794943e-75   8.850097e-58  
0.06542933     4.376024e-75   9.813625e-58  
0.0657395      5.042348e-75   1.08776e-57   
0.06604989     5.80585e-75    1.205193e-57  
0.06636048     6.68003e-75    1.334745e-57  
0.06667128     7.680208e-75   1.477597e-57  
0.06698218     8.823461e-75   1.634986e-57  
0.06729329     1.012984e-74   1.808367e-57  
0.06760461     1.162179e-74   1.999277e-57  
0.06791603     1.332394e-74   2.209312e-57  
0.06822766     1.526528e-74   2.440347e-57  
0.0685395      1.747805e-74   2.694354e-57  
0.06885155     1.999867e-74   2.973481e-57  
0.0691638      2.286841e-74   3.280068e-57  
0.06947616     2.613217e-74   3.61654e-57   
0.06978873     2.984286e-74   3.985759e-57  
0.07010152     3.405917e-74   4.390729e-57  
0.07041451     3.884742e-74   4.834713e-57  
0.07072771     4.428246e-74   5.321245e-57  
0.07104112     5.044845e-74   5.854159e-57  
0.07135475     5.74401e-74    6.437614e-57  
0.07166859     6.536401e-74   7.076122e-57  
0.07198264     7.434034e-74   7.774581e-57  
0.0722969      8.450347e-74   8.538289e-57  
0.07261138     9.600334e-74   9.372953e-57  
0.07292606     1.090098e-73   1.028478e-56  
0.07324097     1.237134e-73   1.218706e-56  
0.07355608     1.403277e-73   1.341215e-56  
0.07387142     1.59093e-73    1.475411e-56  
0.07418685     1.802715e-73   1.622294e-56  
0.07450251     2.041721e-73   1.783047e-56  
0.07481838     2.31134e-73    1.958906e-56  
0.07513446     2.615346e-73   2.15121e-56   
0.07545076     2.957935e-73   2.361409e-56  
0.07576728     3.343779e-73   2.591068e-56  
0.07608402     3.778128e-73   2.841886e-56  
0.07640097     4.266893e-73   3.115706e-56  
0.07671814     4.81663e-73    3.414518e-56  
0.07703553     5.43466e-73    3.740472e-56  
0.07735313     6.129168e-73   4.095891e-56  
0.07767085     6.909112e-73   4.483141e-56  
0.07798879     7.785019e-73   4.905047e-56  
0.07830694     8.768304e-73   5.364543e-56  
0.07862531     9.871633e-73   5.86479e-56   
0.07894391     1.110891e-72   6.409201e-56  
0.07926261     1.249509e-72   7.001244e-56  
0.07958154     1.404801e-72   7.645067e-56  
0.07990068     1.578721e-72   8.344951e-56  
0.08022005     1.773433e-72   9.105513e-56  
0.08053964     1.991354e-72   9.931743e-56  
0.08085945     2.235167e-72   1.082901e-55  
0.08117949     2.507839e-72   1.180313e-55  
0.08149975     2.812662e-72   1.286035e-55  
0.08182023     3.153306e-72   1.400742e-55  
0.08214093     3.533833e-72   1.52516e-55   
0.08246186     3.95876e-72    1.660074e-55  
0.08278302     4.433077e-72   1.80633e-55   
0.0831044      4.962348e-72   1.964836e-55  
0.08342589     5.552494e-72   2.136507e-55  
0.08374761     6.210533e-72   2.322449e-55  
0.08406955     6.944131e-72   2.523794e-55  
0.08439172     7.761639e-72   2.741761e-55  
0.08471412     8.67222e-72    2.977654e-55  
0.08503674     9.685955e-72   3.232875e-55  
0.0853596      1.081406e-71   3.508939e-55  
0.08568268     1.206903e-71   3.807477e-55  
0.08600599     1.346454e-71   4.130238e-55  
0.08632952     1.50157e-71    4.479095e-55  
0.08665329     1.673922e-71   4.85606e-55   
0.08697729     1.865367e-71   5.263291e-55  
0.08730151     2.077961e-71   5.703107e-55  
0.08762586     2.313886e-71   6.177818e-55  
0.08795043     2.575714e-71   6.690238e-55  
0.08827523     2.866195e-71   7.243216e-55  
0.08860027     3.188342e-71   7.839804e-55  
0.08892554     3.545461e-71   8.48326e-55   
0.08925104     3.941151e-71   9.17707e-55   
0.08957677     4.379344e-71   9.92497e-55   
0.08990274     4.864398e-71   1.073096e-54  
0.09022882     5.400871e-71   1.159897e-54  
0.09055513     5.994153e-71   1.253386e-54  
0.09088169     6.649924e-71   1.35405e-54   
0.09120847     7.37448e-71    1.46241e-54   
0.09153549     8.174803e-71   1.579024e-54  
0.09186275     9.058528e-71   1.704485e-54  
0.09219024     1.003424e-70   1.839428e-54  
0.09251785     1.11108e-70    1.984476e-54  
0.0928457      1.229882e-70   2.140403e-54  
0.09317379     1.360944e-70   2.307981e-54  
0.09350211     1.505462e-70   2.488041e-54  
0.09383067     1.664764e-70   2.681471e-54  
0.09415947     1.840318e-70   2.88921e-54   
0.0944885      2.033724e-70   3.112263e-54  
0.09481778     2.246733e-70   3.35171e-54   
0.09514718     2.48119e-70    3.608599e-54  
0.09547681     2.739239e-70   3.884235e-54  
0.09580669     3.02313e-70    4.179909e-54  
0.09613681     3.335328e-70   4.496993e-54  
0.09646717     3.67854e-70    4.836944e-54  
0.09679777     4.055727e-70   5.201317e-54  
0.09712861     4.470198e-70   5.591766e-54  
0.09745958     4.925406e-70   6.009899e-54  
0.09779079     5.425381e-70   6.457742e-54  
0.09812224     5.974401e-70   6.937298e-54  
0.09845393     6.577041e-70   7.450693e-54  
0.09878587     7.238255e-70   8.00018e-54   
0.09911793     7.963248e-70   8.58793e-54   
0.09945024     8.758197e-70   9.216679e-54  
0.09978279     9.629532e-70   9.889131e-54  
0.1001156      1.05843e-69    1.060814e-53  
0.1004485      1.162976e-69   1.137644e-53  
0.1007817      1.277462e-69   1.219752e-53  
0.1011151      1.402786e-69   1.307479e-53  
0.1014488      1.539919e-69   1.401186e-53  
0.1017827      1.689938e-69   1.501258e-53  
0.1021167      1.85395e-69    1.608061e-53  
0.102451       2.033263e-69   1.722065e-53  
0.1027855      2.229242e-69   1.843729e-53  
0.1031203      2.44337e-69    1.973542e-53  
0.1034553      2.677249e-69   2.112019e-53  
0.1037905      2.932548e-69   2.25965e-53   
0.1041259      3.211267e-69   2.417065e-53  
0.1044615      3.515422e-69   2.584877e-53  
0.1047975      3.847179e-69   2.763733e-53  
0.1051336      4.208878e-69   2.954318e-53  
0.10547        4.603095e-69   3.157358e-53  
0.1058067      5.032586e-69   3.373619e-53  
0.1061436      5.500395e-69   3.603911e-53  
0.1064808      6.009946e-69   3.849091e-53  
0.1068182      6.564955e-69   4.110073e-53  
0.1071558      7.169144e-69   4.387715e-53  
0.1074936      7.826973e-69   4.683132e-53  
0.1078317      8.543041e-69   4.997405e-53  
0.10817        9.322272e-69   5.331673e-53  
0.1085086      1.016993e-68   5.687136e-53  
0.1088474      1.109174e-68   6.065061e-53  
0.1091865      1.20939e-68    6.466789e-53  
0.1095258      1.318266e-68   6.893565e-53  
0.1098652      1.436563e-68   7.347031e-53  
0.110205       1.565067e-68   7.82876e-53   
0.110545       1.704626e-68   8.340413e-53  
0.1108853      1.856167e-68   8.883744e-53  
0.1112257      2.020612e-68   9.460374e-53  
0.1115663      2.199112e-68   1.007245e-52  
0.1119072      2.392806e-68   1.072201e-52  
0.1122483      2.602847e-68   1.141096e-52  
0.1125896      2.830637e-68   1.214185e-52  
0.1129312      3.0776e-68     1.291707e-52  
0.113273       3.345278e-68   1.373917e-52  
0.113615       3.635235e-68   1.461046e-52  
0.1139572      3.949368e-68   1.553404e-52  
0.1142997      4.289632e-68   1.651287e-52  
0.1146425      4.658116e-68   1.755005e-52  
0.1149855      5.057062e-68   1.864885e-52  
0.1153288      5.488824e-68   1.981274e-52  
0.1156724      5.955995e-68   2.104537e-52  
0.1160161      6.461238e-68   2.23501e-52   
0.11636        7.007838e-68   2.373146e-52  
0.1167042      7.59904e-68    2.519372e-52  
0.1170487      8.238211e-68   2.674133e-52  
0.1173935      8.928996e-68   2.837897e-52  
0.1177384      9.675043e-68   3.011088e-52  
0.1180836      1.048096e-67   3.194284e-52  
0.118429       1.135147e-67   3.388027e-52  
0.1187747      1.229156e-67   3.592885e-52  
0.1191206      1.330583e-67   3.809367e-52  
0.1194667      1.440011e-67   4.038171e-52  
0.1198131      1.55803e-67    4.279952e-52  
0.1201598      1.685299e-67   4.535401e-52  
0.1205067      1.822512e-67   4.805243e-52  
0.1208538      1.970394e-67   5.090122e-52  
0.1212011      2.129816e-67   5.390944e-52  
0.1215488      2.30165e-67    5.708553e-52  
0.1218965      2.486754e-67   6.043701e-52  
0.1222446      2.686171e-67   6.397434e-52  
0.1225929      2.900972e-67   6.77072e-52   
0.1229413      3.132194e-67   7.164414e-52  
0.1232901      3.381148e-67   7.579729e-52  
0.1236391      3.649116e-67   8.017786e-52  
0.1239884      3.937429e-67   8.479762e-52  
0.1243378      4.247415e-67   1.01719e-51   
0.1246875      4.5807e-67     1.079022e-51  
0.1250375      4.938919e-67   1.144451e-51  
0.1253878      5.323847e-67   1.213678e-51  
0.1257382      5.737268e-67   1.286883e-51  
0.1260888      6.181413e-67   1.364306e-51  
0.1264397      6.65839e-67    1.446138e-51  
0.1267908      7.170793e-67   1.532637e-51  
0.1271422      7.721085e-67   1.624052e-51  
0.1274937      8.311767e-67   1.720596e-51  
0.1278455      8.945909e-67   1.822583e-51  
0.1281975      9.626323e-67   1.930263e-51  
0.1285497      1.035642e-66   2.043986e-51  
0.1289023      1.113981e-66   2.164079e-51  
0.1292549      1.197983e-66   2.290829e-51  
0.1296079      1.288066e-66   2.424639e-51  
0.129961       1.384618e-66   2.565823e-51  
0.1303144      1.488136e-66   2.714824e-51  
0.130668       1.599106e-66   2.872037e-51  
0.1310219      1.718004e-66   3.037797e-51  
0.131376       1.845417e-66   3.212602e-51  
0.1317302      1.981866e-66   3.396837e-51  
0.1320848      2.128017e-66   3.591061e-51  
0.1324395      2.28447e-66    3.795704e-51  
0.1327944      2.451985e-66   4.011395e-51  
0.1331495      2.631218e-66   4.238646e-51  
0.133505       2.823055e-66   4.478178e-51  
0.1338607      3.028271e-66   4.730657e-51  
0.1342165      3.247637e-66   4.996654e-51  
0.1345727      3.482176e-66   5.276991e-51  
0.1349289      3.732809e-66   5.572302e-51  
0.1352855      4.00069e-66    5.883497e-51  
0.1356424      4.286954e-66   6.21139e-51   
0.1359994      4.592707e-66   6.556662e-51  
0.1363568      4.91939e-66    6.920294e-51  
0.1367142      5.268237e-66   7.303018e-51  
0.1370718      5.640683e-66   7.705754e-51  
0.1374298      6.038418e-66   8.129676e-51  
0.1377878      6.462901e-66   8.575664e-51  
0.1381462      6.916047e-66   9.045022e-51  
0.1385047      7.399592e-66   9.538755e-51  
0.1388633      7.915489e-66   1.005813e-50  
0.1392223      8.466057e-66   1.060469e-50  
0.1395814      9.053207e-66   1.11796e-50   
0.1399407      9.679199e-66   1.178425e-50  
0.1403002      1.034665e-65   1.242039e-50  
0.1406599      1.105789e-65   1.308924e-50  
0.1410199      1.181593e-65   1.379267e-50  
0.1413801      1.262337e-65   1.4532e-50    
0.1417404      1.34832e-65    1.530893e-50  
0.142101       1.439918e-65   1.612558e-50  
0.1424618      1.537444e-65   1.698345e-50  
0.1428228      1.641325e-65   1.788488e-50  
0.1431841      1.751918e-65   1.883154e-50  
0.1435454      1.869632e-65   1.982551e-50  
0.1439071      1.994959e-65   2.086946e-50  
0.1442689      2.128322e-65   2.196534e-50  
0.1446311      2.27027e-65    2.311624e-50  
0.1449934      2.421294e-65   2.432431e-50  
0.1453558      2.581899e-65   2.559232e-50  
0.1457186      2.752744e-65   2.692358e-50  
0.1460815      2.934406e-65   2.832039e-50  
0.1464447      3.127625e-65   2.978634e-50  
0.1468081      3.332999e-65   3.132398e-50  
0.1471716      3.551268e-65   3.293653e-50  
0.1475354      3.783314e-65   3.462807e-50  
0.1478994      4.02988e-65    3.640138e-50  
0.1482637      4.291965e-65   3.826088e-50  
0.1486282      4.570414e-65   4.020957e-50  
0.1489928      4.866205e-65   4.225142e-50  
0.1493577      5.180525e-65   4.439155e-50  
0.1497228      5.514364e-65   4.663349e-50  
0.1500882      5.868995e-65   4.8983e-50    
0.1504537      6.245466e-65   5.144414e-50  
0.1508196      6.645214e-65   5.402316e-50  
0.1511858      7.069618e-65   5.672551e-50  
0.1515521      7.519826e-65   3.367379e-51  
0.1519188      7.997467e-65   3.54479e-51   
0.1522856      8.503853e-65   3.731011e-51  
0.1526527      9.040778e-65   3.926522e-51  
0.15302        9.609643e-65   4.131656e-51  
0.1533877      1.021248e-64   4.346955e-51  
0.1537554      1.085099e-64   4.572823e-51  
0.1541235      1.152752e-64   4.809869e-51  
0.1544918      1.224392e-64   5.058509e-51  
0.1548603      1.300274e-64   5.319395e-51  
0.1552292      1.380641e-64   5.593113e-51  
0.1555983      1.465718e-64   5.880163e-51  
0.1559677      1.555833e-64   6.181317e-51  
0.1563372      1.651256e-64   6.497114e-51  
0.1567071      1.75234e-64    6.828391e-51  
0.1570773      1.859409e-64   7.175876e-51  
0.1574476      1.972756e-64   7.540161e-51  
0.1578183      2.092794e-64   7.922185e-51  
0.1581891      2.219852e-64   8.322582e-51  
0.1585603      2.354385e-64   8.742357e-51  
0.1589317      2.496742e-64   9.182183e-51  
0.1593033      2.647427e-64   9.64313e-51   
0.1596751      2.806785e-64   1.01259e-50   
0.1600473      2.975335e-64   1.063164e-50  
0.1604196      3.153506e-64   1.116116e-50  
0.1607921      3.341826e-64   1.171548e-50  
0.1611649      3.540994e-64   1.229603e-50  
0.1615381      3.751609e-64   1.290396e-50  
0.1619114      3.974171e-64   1.35402e-50   
0.162285       4.209424e-64   1.420631e-50  
0.1626588      4.457933e-64   1.490331e-50  
0.163033       4.720515e-64   1.56329e-50   
0.1634075      4.99793e-64    1.639653e-50  
0.1637821      5.290964e-64   1.719539e-50  
0.1641571      5.600617e-64   1.803145e-50  
0.1645324      5.927834e-64   1.890644e-50  
0.1649079      6.273435e-64   1.982172e-50  
0.1652837      6.638599e-64   2.077953e-50  
0.1656597      7.024242e-64   2.178136e-50  
0.1660361      7.431671e-64   2.282955e-50  
0.1664126      7.861888e-64   2.392562e-50  
0.1667893      8.31611e-64    2.507157e-50  
0.1671663      8.795807e-64   2.626993e-50  
0.1675435      9.302017e-64   2.752215e-50  
0.167921       9.836311e-64   2.883087e-50  
0.1682987      1.039987e-63   3.019775e-50  
0.1686766      1.099418e-63   3.162522e-50  
0.1690548      1.162109e-63   3.311647e-50  
0.1694332      1.228199e-63   3.467351e-50  
0.1698119      1.297902e-63   3.629993e-50  
0.1701908      1.371394e-63   3.799799e-50  
0.1705701      1.448907e-63   3.977148e-50  
0.1709495      1.530639e-63   4.162278e-50  
0.1713293      1.616837e-63   4.355597e-50  
0.1717092      1.707674e-63   4.557341e-50  
0.1720894      1.803369e-63   4.767838e-50  
0.1724698      1.90421e-63    4.987536e-50  
0.1728505      2.010429e-63   5.216716e-50  
0.1732315      2.12235e-63    5.455866e-50  
0.1736127      2.240206e-63   5.705279e-50  
0.173994       2.364316e-63   5.965381e-50  
0.1743757      2.495072e-63   6.236746e-50  
0.1747576      2.632808e-63   6.519749e-50  
0.1751396      2.777935e-63   6.8149e-50    
0.1755221      2.930925e-63   7.122869e-50  
0.1759046      3.092084e-63   7.444067e-50  
0.1762874      3.261811e-63   7.779042e-50  
0.1766705      3.440632e-63   8.128518e-50  
0.1770538      3.628951e-63   8.492914e-50  
0.1774373      3.827274e-63   8.87281e-50   
0.177821       4.036093e-63   9.268806e-50  
0.178205       4.255997e-63   9.681702e-50  
0.1785892      4.487452e-63   2.843058e-50  
0.1789736      4.731143e-63   2.978604e-50  
0.1793583      4.987797e-63   3.120355e-50  
0.1797432      5.25799e-63    3.268518e-50  
0.1801285      5.542559e-63   3.423443e-50  
0.1805139      5.842142e-63   3.585352e-50  
0.1808996      6.15753e-63    3.754544e-50  
0.1812856      6.489682e-63   3.931417e-50  
0.1816718      6.839356e-63   4.11622e-50   
0.1820581      7.207522e-63   4.30929e-50   
0.1824447      7.595167e-63   4.510977e-50  
0.1828314      8.003309e-63   4.721642e-50  
0.1832185      8.43318e-63    4.941766e-50  
0.1836058      8.885604e-63   5.171641e-50  
0.1839933      9.36166e-63    5.411673e-50  
0.1843809      9.862537e-63   5.662289e-50  
0.1847688      1.038958e-62   5.92394e-50   
0.185157       1.094447e-62   6.197225e-50  
0.1855454      1.152859e-62   6.482508e-50  
0.1859339      1.214349e-62   6.780287e-50  
0.1863229      1.279096e-62   7.091232e-50  
0.186712       1.347213e-62   7.415735e-50  
0.1871013      1.418842e-62   7.754343e-50  
0.1874908      1.494149e-62   8.107623e-50  
0.1878807      1.573355e-62   8.476347e-50  
0.1882708      1.656612e-62   8.86097e-50   
0.188661       1.744116e-62   9.262154e-50  
0.1890515      1.836073e-62   9.680595e-50  
0.1894423      1.93276e-62    1.011721e-49  
0.1898333      2.034385e-62   1.057251e-49  
0.1902247      2.141264e-62   1.104748e-49  
0.1906163      2.253624e-62   1.154272e-49  
0.191008       2.371747e-62   1.205904e-49  
0.1914002      2.496005e-62   1.259757e-49  
0.1917925      2.626709e-62   1.315899e-49  
0.192185       2.764207e-62   1.374423e-49  
0.1925778      2.908862e-62   1.435429e-49  
0.1929707      3.061053e-62   1.499018e-49  
0.193364       3.221251e-62   1.565329e-49  
0.1937574      3.389794e-62   1.634441e-49  
0.1941511      3.567089e-62   1.70647e-49   
0.194545       3.753567e-62   1.781535e-49  
0.1949392      3.949802e-62   1.859798e-49  
0.1953337      4.15622e-62    1.941349e-49  
0.1957283      4.373367e-62   2.02632e-49   
0.1961231      4.601818e-62   2.114849e-49  
0.1965184      4.842282e-62   2.207124e-49  
0.1969138      5.095223e-62   2.303251e-49  
0.1973094      5.361182e-62   2.403383e-49  
0.1977054      5.640907e-62   2.507732e-49  
0.1981016      5.934898e-62   2.616413e-49  
0.1984982      6.243965e-62   2.729654e-49  
0.1988949      6.568692e-62   2.84758e-49   
0.1992919      6.90984e-62    2.970376e-49  
0.1996893      7.268388e-62   3.098298e-49  
0.2000869      7.64501e-62    3.231486e-49  
0.2004846      8.040603e-62   3.370149e-49  
0.2008828      8.45636e-62    3.51458e-49   
0.2012812      8.893179e-62   3.664939e-49  
0.2016797      9.352335e-62   3.821466e-49  
0.2020785      9.834983e-62   3.984403e-49  
0.2024774      1.034223e-61   4.154004e-49  
0.2028766      1.087528e-61   4.330532e-49  
0.2032762      1.143569e-61   4.514355e-49  
0.2036759      1.202457e-61   4.705673e-49  
0.2040759      1.264345e-61   4.904786e-49  
0.2044761      1.329406e-61   5.112005e-49  
0.2048764      1.397798e-61   5.327651e-49  
0.205277       1.469688e-61   5.552061e-49  
0.2056778      1.54525e-61    5.785579e-49  
0.2060787      1.624663e-61   6.028563e-49  
0.2064801      1.708161e-61   6.281512e-49  
0.2068817      1.795895e-61   6.544692e-49  
0.2072835      1.888077e-61   6.818503e-49  