# Probe 0 (0 0 0)
# Probe 1 (0 0.011 0)
# Time         0              1             
0              0              0             
1.199999e-06   3.132304e-10   3.132304e-10  
2.639996e-06   8.217673e-10   8.217673e-10  
4.367991e-06   1.488195e-09   1.488195e-09  
6.441582e-06   2.3117e-09     2.3117e-09    
8.92989e-06    3.309978e-09   3.309978e-09  
1.191586e-05   4.51217e-09    4.51217e-09   
1.549901e-05   5.956598e-09   5.956598e-09  
1.97988e-05    7.690659e-09   7.690659e-09  
2.495853e-05   9.771822e-09   9.771822e-09  
3.115017e-05   1.226931e-08   1.226931e-08  
3.858013e-05   1.52663e-08    1.52663e-08   
4.749602e-05   1.886261e-08   1.886261e-08  
5.819505e-05   2.317808e-08   2.317808e-08  
7.103374e-05   2.835644e-08   2.835644e-08  
8.644002e-05   3.457019e-08   3.457019e-08  
0.0001049275   4.202636e-08   4.202636e-08  
0.0001271124   5.097327e-08   5.097327e-08  
0.0001537338   6.170874e-08   6.170874e-08  
0.0001856788   7.459008e-08   7.459008e-08  
0.0002240123   9.004616e-08   9.004616e-08  
0.0002700107   1.085908e-07   1.085908e-07  
0.0003252078   1.308412e-07   1.308412e-07  
0.0003914421   1.575368e-07   1.575368e-07  
0.0004709212   1.895649e-07   1.895649e-07  
0.0005662961   2.279902e-07   2.279902e-07  
0.0006804389   2.739651e-07   2.739651e-07  
0.0008138772   3.276954e-07   3.276954e-07  
0.0009672442   3.894284e-07   3.894284e-07  
0.001141292    4.594574e-07   4.594574e-07  
0.001336801    5.380859e-07   5.380859e-07  
0.00155466     6.256579e-07   6.256579e-07  
0.00178461     7.180396e-07   7.180396e-07  
0.002015358    8.10689e-07    8.10689e-07   
0.002246213    9.033286e-07   9.033286e-07  
0.002477068    9.959155e-07   9.959155e-07  
0.002707869    1.088429e-06   1.088429e-06  
0.00293867     1.180889e-06   1.180889e-06  
0.003169418    1.273276e-06   1.273276e-06  
0.003400219    1.365632e-06   1.365632e-06  
0.003631074    1.457957e-06   1.457957e-06  
0.003862036    1.550272e-06   1.550272e-06  
0.004093158    1.642599e-06   1.642599e-06  
0.004324388    1.734917e-06   1.734917e-06  
0.004555833    1.827269e-06   1.827269e-06  
0.004787493    1.919654e-06   1.919654e-06  
0.005019369    2.012072e-06   2.012072e-06  
0.00525157     2.104568e-06   2.104568e-06  
0.005484096    2.197141e-06   2.197141e-06  
0.005717004    2.289812e-06   2.289812e-06  
0.005950294    2.382583e-06   2.382583e-06  
0.006184023    2.475476e-06   2.475476e-06  
0.006418138    2.568469e-06   2.568469e-06  
0.006652695    2.661584e-06   2.661584e-06  
0.006887695    2.754822e-06   2.754822e-06  
0.007123141    2.848184e-06   2.848184e-06  
0.007359035    2.941669e-06   2.941669e-06  
0.007595435    3.035301e-06   3.035301e-06  
0.007832342    3.129079e-06   3.129079e-06  
0.008069759    3.223006e-06   3.223006e-06  
0.008307689    3.317081e-06   3.317081e-06  
0.008546192    3.411328e-06   3.411328e-06  
0.008785269    3.505748e-06   3.505748e-06  
0.009024924    3.600341e-06   3.600341e-06  
0.009265161    3.695108e-06   3.695108e-06  
0.009505922    3.790027e-06   3.790027e-06  
0.009747271    3.885121e-06   3.885121e-06  
0.009989209    3.980393e-06   3.980393e-06  
0.01023168     4.075818e-06   4.075818e-06  
0.01047475     4.171422e-06   4.171422e-06  
0.01071835     4.267181e-06   4.267181e-06  
0.01096256     4.36312e-06    4.36312e-06   
0.01120737     4.459239e-06   4.459239e-06  
0.01145273     4.555517e-06   4.555517e-06  
0.0116987      4.651976e-06   4.651976e-06  
0.01194522     4.748595e-06   4.748595e-06  
0.01219236     4.845398e-06   4.845398e-06  
0.01244005     4.942362e-06   4.942362e-06  
0.01268837     5.039512e-06   5.039512e-06  
0.01293725     5.136824e-06   5.136824e-06  
0.01318676     5.234323e-06   5.234323e-06  
0.0134369      5.332011e-06   5.332011e-06  
0.01368762     5.429863e-06   5.429863e-06  
0.01393891     5.527881e-06   5.527881e-06  
0.01419077     5.626065e-06   5.626065e-06  
0.01444322     5.724416e-06   5.724416e-06  
0.01469619     5.822909e-06   5.822909e-06  
0.01494968     5.921545e-06   5.921545e-06  
0.01520369     6.020324e-06   6.020324e-06  
0.01545822     6.119248e-06   6.119248e-06  
0.01571328     6.218316e-06   6.218316e-06  
0.01596888     6.317529e-06   6.317529e-06  
0.016225       6.416888e-06   6.416888e-06  
0.01648159     6.516368e-06   6.516368e-06  
0.01673872     6.615995e-06   6.615995e-06  
0.01699639     6.71577e-06    6.71577e-06   
0.01725453     6.815666e-06   6.815666e-06  
0.01751315     6.915685e-06   6.915685e-06  
0.01777231     7.015853e-06   7.015853e-06  
0.01803195     7.116145e-06   7.116145e-06  
0.01829208     7.216561e-06   7.216561e-06  
0.01855269     7.317101e-06   7.317101e-06  
0.01881385     7.417793e-06   7.417793e-06  
0.0190755      7.51861e-06    7.51861e-06   
0.01933764     7.619553e-06   7.619553e-06  
0.0196002      7.720595e-06   7.720595e-06  
0.01986325     7.821764e-06   7.821764e-06  
0.0201268      7.923061e-06   7.923061e-06  
0.02039077     8.024458e-06   8.024458e-06  
0.02065525     8.125983e-06   8.125983e-06  
0.02092015     8.227609e-06   8.227609e-06  
0.02118548     8.329337e-06   8.329337e-06  
0.02145125     8.431166e-06   8.431166e-06  
0.02171745     8.533098e-06   8.533098e-06  
0.02198408     8.635133e-06   8.635133e-06  
0.02225123     8.737298e-06   8.737298e-06  
0.02251881     8.839567e-06   8.839567e-06  
0.02278676     8.941911e-06   8.941911e-06  
0.02305515     9.044359e-06   9.044359e-06  
0.02332399     9.146912e-06   9.146912e-06  
0.02359326     9.249569e-06   9.249569e-06  
0.02386299     9.352332e-06   9.352332e-06  
0.02413309     9.455171e-06   9.455171e-06  
0.02440364     9.558117e-06   9.558117e-06  
0.02467456     9.66114e-06    9.66114e-06   
0.02494594     9.764269e-06   9.764269e-06  
0.02521769     9.867477e-06   9.867477e-06  
0.02548982     9.970762e-06   9.970762e-06  
0.02576241     1.007416e-05   1.007416e-05  
0.02603539     1.017763e-05   1.017763e-05  
0.02630874     1.028118e-05   1.028118e-05  
0.02658256     1.038484e-05   1.038484e-05  
0.02685676     1.048858e-05   1.048858e-05  
0.02713135     1.05924e-05    1.05924e-05   
0.02740633     1.06963e-05    1.06963e-05   
0.02768161     1.080025e-05   1.080025e-05  
0.02795729     1.090428e-05   1.090428e-05  
0.02823336     1.100839e-05   1.100839e-05  
0.02850975     1.111255e-05   1.111255e-05  
0.02878653     1.12168e-05    1.12168e-05   
0.0290637      1.132113e-05   1.132113e-05  
0.02934119     1.142551e-05   1.142551e-05  
0.029619       1.152994e-05   1.152994e-05  
0.0298972      1.163445e-05   1.163445e-05  
0.03017573     1.173902e-05   1.173902e-05  
0.03045457     1.184363e-05   1.184363e-05  
0.03073382     1.194834e-05   1.194834e-05  
0.03101339     1.205309e-05   1.205309e-05  
0.03129328     1.21579e-05    1.21579e-05   
0.0315735      1.226276e-05   1.226276e-05  
0.03185412     1.236771e-05   1.236771e-05  
0.03213507     1.247271e-05   1.247271e-05  
0.03241634     1.257776e-05   1.257776e-05  
0.03269794     1.268287e-05   1.268287e-05  
0.03297987     1.278803e-05   1.278803e-05  
0.03326213     1.289325e-05   1.289325e-05  
0.03354472     1.299852e-05   1.299852e-05  
0.03382764     1.310384e-05   1.310384e-05  
0.03411098     1.320926e-05   1.320926e-05  
0.03439464     1.331472e-05   1.331472e-05  
0.03467864     1.342024e-05   1.342024e-05  
0.03496298     1.352582e-05   1.352582e-05  
0.03524765     1.363146e-05   1.363146e-05  
0.03553266     1.373715e-05   1.373715e-05  
0.03581801     1.384289e-05   1.384289e-05  
0.0361036      1.394866e-05   1.394866e-05  
0.03638954     1.405449e-05   1.405449e-05  
0.03667582     1.416037e-05   1.416037e-05  
0.03696244     1.426631e-05   1.426631e-05  
0.0372494      1.437231e-05   1.437231e-05  
0.03753662     1.447833e-05   1.447833e-05  
0.03782418     1.458441e-05   1.458441e-05  
0.03811199     1.469052e-05   1.469052e-05  
0.03840016     1.479668e-05   1.479668e-05  
0.03868867     1.49029e-05    1.49029e-05   
0.03897743     1.500915e-05   1.500915e-05  
0.03926655     1.511546e-05   1.511546e-05  
0.03955593     1.522179e-05   1.522179e-05  
0.03984565     1.532818e-05   1.532818e-05  
0.04013564     1.543459e-05   1.543459e-05  
0.04042598     1.554107e-05   1.554107e-05  
0.04071668     1.56476e-05    1.56476e-05   
0.04100763     1.575416e-05   1.575416e-05  
0.04129894     1.586078e-05   1.586078e-05  
0.04159052     1.596743e-05   1.596743e-05  
0.04188236     1.607411e-05   1.607411e-05  
0.04217456     1.618084e-05   1.618084e-05  
0.04246702     1.62876e-05    1.62876e-05   
0.04275985     1.639442e-05   1.639442e-05  
0.04305294     1.650127e-05   1.650127e-05  
0.0433463      1.660815e-05   1.660815e-05  
0.04363993     1.671505e-05   1.671505e-05  
0.04393393     1.682202e-05   1.682202e-05  
0.04422819     1.692901e-05   1.692901e-05  
0.04452273     1.703604e-05   1.703604e-05  
0.04481754     1.714309e-05   1.714309e-05  
0.04511262     1.725017e-05   1.725017e-05  
0.04540798     1.735727e-05   1.735727e-05  
0.04570361     1.746441e-05   1.746441e-05  
0.04599942     1.757154e-05   1.757154e-05  
0.04629551     1.76787e-05    1.76787e-05   
0.04659188     1.778589e-05   1.778589e-05  
0.04688852     1.789311e-05   1.789311e-05  
0.04718544     1.800035e-05   1.800035e-05  
0.04748254     1.81076e-05    1.81076e-05   
0.04777993     1.821487e-05   1.821487e-05  
0.04807759     1.832217e-05   1.832217e-05  
0.04837553     1.84295e-05    1.84295e-05   
0.04867375     1.853686e-05   1.853686e-05  
0.04897216     1.864422e-05   1.864422e-05  
0.04927085     1.875161e-05   1.875161e-05  
0.04956982     1.885903e-05   1.885903e-05  
0.04986907     1.896647e-05   1.896647e-05  
0.05016852     1.907392e-05   1.907392e-05  
0.05046824     1.918139e-05   1.918139e-05  
0.05076825     1.92889e-05    1.92889e-05   
0.05106845     1.93964e-05    1.93964e-05   
0.05136894     1.950393e-05   1.950393e-05  
0.05166971     1.961149e-05   1.961149e-05  
0.05197067     1.971905e-05   1.971905e-05  
0.05227192     1.982664e-05   1.982664e-05  
0.05257336     1.993423e-05   1.993423e-05  
0.05287509     2.004185e-05   2.004185e-05  
0.05317701     2.014946e-05   2.014946e-05  
0.05347922     2.025711e-05   2.025711e-05  
0.05378162     2.036476e-05   2.036476e-05  
0.05408431     2.047243e-05   2.047243e-05  
0.0543872      2.05801e-05    2.05801e-05   
0.05469038     2.068781e-05   2.068781e-05  
0.05499375     2.079551e-05   2.079551e-05  
0.05529732     2.090321e-05   2.090321e-05  
0.05560118     2.101095e-05   2.101095e-05  
0.05590524     2.111868e-05   2.111868e-05  
0.05620949     2.12264e-05    2.12264e-05   
0.05651404     2.133416e-05   2.133416e-05  
0.05681878     2.144192e-05   2.144192e-05  
0.05712372     2.154968e-05   2.154968e-05  
0.05742886     2.165743e-05   2.165743e-05  
0.05773419     2.176518e-05   2.176518e-05  
0.05803973     2.187293e-05   2.187293e-05  
0.05834546     2.198068e-05   2.198068e-05  
0.05865139     2.208843e-05   2.208843e-05  
0.05895752     2.219617e-05   2.219617e-05  
0.05926385     2.230392e-05   2.230392e-05  
0.05957038     2.241166e-05   2.241166e-05  
0.0598771      2.25194e-05    2.25194e-05   
0.06018403     2.262714e-05   2.262714e-05  
0.06049106     2.273484e-05   2.273484e-05  
0.06079829     2.284254e-05   2.284254e-05  
0.06110572     2.295024e-05   2.295024e-05  
0.06141336     2.305794e-05   2.305794e-05  
0.06172119     2.316564e-05   2.316564e-05  
0.06202923     2.327334e-05   2.327334e-05  
0.06233747     2.338103e-05   2.338103e-05  
0.06264581     2.348869e-05   2.348869e-05  
0.06295435     2.359635e-05   2.359635e-05  
0.0632631      2.370401e-05   2.370401e-05  
0.06357205     2.381167e-05   2.381167e-05  
0.0638811      2.391929e-05   2.391929e-05  
0.06419035     2.402691e-05   2.402691e-05  
0.06449981     2.413453e-05   2.413453e-05  
0.06480948     2.424215e-05   2.424215e-05  
0.06511935     2.434977e-05   2.434977e-05  
0.06542933     2.445736e-05   2.445736e-05  
0.0657395      2.456494e-05   2.456494e-05  
0.06604989     2.467252e-05   2.467252e-05  
0.06636048     2.478011e-05   2.478011e-05  
0.06667128     2.488769e-05   2.488769e-05  
0.06698218     2.499524e-05   2.499524e-05  
0.06729329     2.510279e-05   2.510279e-05  
0.06760461     2.521034e-05   2.521034e-05  
0.06791603     2.531785e-05   2.531785e-05  
0.06822766     2.542537e-05   2.542537e-05  
0.0685395      2.553288e-05   2.553288e-05  
0.06885155     2.56404e-05    2.56404e-05   
0.0691638      2.574791e-05   2.574791e-05  
0.06947616     2.585539e-05   2.585539e-05  
0.06978873     2.596287e-05   2.596287e-05  
0.07010152     2.607036e-05   2.607036e-05  
0.07041451     2.617784e-05   2.617784e-05  
0.07072771     2.628532e-05   2.628532e-05  
0.07104112     2.639281e-05   2.639281e-05  
0.07135475     2.65003e-05    2.65003e-05   
0.07166859     2.660778e-05   2.660778e-05  
0.07198264     2.671527e-05   2.671527e-05  
0.0722969      2.682276e-05   2.682276e-05  
0.07261138     2.693026e-05   2.693026e-05  
0.07292606     2.703775e-05   2.703775e-05  
0.07324097     2.714524e-05   2.714524e-05  
0.07355608     2.725274e-05   2.725274e-05  
0.07387142     2.736024e-05   2.736024e-05  
0.07418685     2.74677e-05    2.74677e-05   
0.07450251     2.757517e-05   2.757517e-05  
0.07481838     2.768264e-05   2.768264e-05  
0.07513446     2.779011e-05   2.779011e-05  
0.07545076     2.789758e-05   2.789758e-05  
0.07576728     2.800505e-05   2.800505e-05  
0.07608402     2.811253e-05   2.811253e-05  
0.07640097     2.822001e-05   2.822001e-05  
0.07671814     2.832749e-05   2.832749e-05  
0.07703553     2.843497e-05   2.843497e-05  
0.07735313     2.854246e-05   2.854246e-05  
0.07767085     2.864991e-05   2.864991e-05  
0.07798879     2.875737e-05   2.875737e-05  
0.07830694     2.886483e-05   2.886483e-05  
0.07862531     2.897229e-05   2.897229e-05  
0.07894391     2.907975e-05   2.907975e-05  
0.07926261     2.918718e-05   2.918718e-05  
0.07958154     2.929461e-05   2.929461e-05  
0.07990068     2.940205e-05   2.940205e-05  
0.08022005     2.950949e-05   2.950949e-05  
0.08053964     2.961693e-05   2.961693e-05  
0.08085945     2.972438e-05   2.972438e-05  
0.08117949     2.983183e-05   2.983183e-05  
0.08149975     2.993928e-05   2.993928e-05  
0.08182023     3.004674e-05   3.004674e-05  
0.08214093     3.01542e-05    3.01542e-05   
0.08246186     3.026166e-05   3.026166e-05  
0.08278302     3.036913e-05   3.036913e-05  
0.0831044      3.04766e-05    3.04766e-05   
0.08342589     3.058404e-05   3.058404e-05  
0.08374761     3.069148e-05   3.069148e-05  
0.08406955     3.079893e-05   3.079893e-05  
0.08439172     3.090638e-05   3.090638e-05  
0.08471412     3.101384e-05   3.101384e-05  
0.08503674     3.11213e-05    3.11213e-05   
0.0853596      3.122876e-05   3.122876e-05  
0.08568268     3.133623e-05   3.133623e-05  
0.08600599     3.14437e-05    3.14437e-05   
0.08632952     3.155118e-05   3.155118e-05  
0.08665329     3.165866e-05   3.165866e-05  
0.08697729     3.176615e-05   3.176615e-05  
0.08730151     3.187365e-05   3.187365e-05  
0.08762586     3.198111e-05   3.198111e-05  
0.08795043     3.208857e-05   3.208857e-05  
0.08827523     3.219604e-05   3.219604e-05  
0.08860027     3.230352e-05   3.230352e-05  
0.08892554     3.2411e-05     3.2411e-05    
0.08925104     3.251849e-05   3.251849e-05  
0.08957677     3.262598e-05   3.262598e-05  
0.08990274     3.273348e-05   3.273348e-05  
0.09022882     3.284094e-05   3.284094e-05  
0.09055513     3.294841e-05   3.294841e-05  
0.09088169     3.305589e-05   3.305589e-05  
0.09120847     3.316337e-05   3.316337e-05  
0.09153549     3.327086e-05   3.327086e-05  
0.09186275     3.337836e-05   3.337836e-05  
0.09219024     3.348586e-05   3.348586e-05  
0.09251785     3.359333e-05   3.359333e-05  
0.0928457      3.37008e-05    3.37008e-05   
0.09317379     3.380828e-05   3.380828e-05  
0.09350211     3.391577e-05   3.391577e-05  
0.09383067     3.402327e-05   3.402327e-05  
0.09415947     3.413077e-05   3.413077e-05  
0.0944885      3.423828e-05   3.423828e-05  
0.09481778     3.434579e-05   3.434579e-05  
0.09514718     3.445328e-05   3.445328e-05  
0.09547681     3.456077e-05   3.456077e-05  
0.09580669     3.466826e-05   3.466826e-05  
0.09613681     3.477577e-05   3.477577e-05  
0.09646717     3.488328e-05   3.488328e-05  
0.09679777     3.49908e-05    3.49908e-05   
0.09712861     3.509832e-05   3.509832e-05  
0.09745958     3.520582e-05   3.520582e-05  
0.09779079     3.531332e-05   3.531332e-05  
0.09812224     3.542083e-05   3.542083e-05  
0.09845393     3.552835e-05   3.552835e-05  
0.09878587     3.563587e-05   3.563587e-05  
0.09911793     3.574337e-05   3.574337e-05  
0.09945024     3.585087e-05   3.585087e-05  
0.09978279     3.595838e-05   3.595838e-05  
0.1001156      3.60659e-05    3.60659e-05   
0.1004485      3.617339e-05   3.617339e-05  
0.1007817      3.628088e-05   3.628088e-05  
0.1011151      3.638838e-05   3.638838e-05  
0.1014488      3.64959e-05    3.64959e-05   
0.1017827      3.660342e-05   3.660342e-05  
0.1021167      3.671091e-05   3.671091e-05  
0.102451       3.681841e-05   3.681841e-05  
0.1027855      3.692591e-05   3.692591e-05  
0.1031203      3.703343e-05   3.703343e-05  
0.1034553      3.714095e-05   3.714095e-05  
0.1037905      3.724845e-05   3.724845e-05  
0.1041259      3.735595e-05   3.735595e-05  
0.1044615      3.746347e-05   3.746347e-05  
0.1047975      3.757099e-05   3.757099e-05  
0.1051336      3.767852e-05   3.767852e-05  
0.10547        3.778606e-05   3.778606e-05  
0.1058067      3.789361e-05   3.789361e-05  
0.1061436      3.800117e-05   3.800117e-05  
0.1064808      3.810874e-05   3.810874e-05  
0.1068182      3.821632e-05   3.821632e-05  
0.1071558      3.832387e-05   3.832387e-05  
0.1074936      3.843143e-05   3.843143e-05  
0.1078317      3.853901e-05   3.853901e-05  
0.10817        3.864659e-05   3.864659e-05  
0.1085086      3.875418e-05   3.875418e-05  
0.1088474      3.886178e-05   3.886178e-05  
0.1091865      3.896939e-05   3.896939e-05  
0.1095258      3.907697e-05   3.907697e-05  
0.1098652      3.918456e-05   3.918456e-05  
0.110205       3.929217e-05   3.929217e-05  
0.110545       3.939978e-05   3.939978e-05  
0.1108853      3.950741e-05   3.950741e-05  
0.1112257      3.9615e-05     3.9615e-05    
0.1115663      3.972261e-05   3.972261e-05  
0.1119072      3.983023e-05   3.983023e-05  
0.1122483      3.993782e-05   3.993782e-05  
0.1125896      4.004541e-05   4.004541e-05  
0.1129312      4.015303e-05   4.015303e-05  
0.113273       4.026065e-05   4.026065e-05  
0.113615       4.036824e-05   4.036824e-05  
0.1139572      4.047584e-05   4.047584e-05  
0.1142997      4.058346e-05   4.058346e-05  
0.1146425      4.069109e-05   4.069109e-05  
0.1149855      4.079873e-05   4.079873e-05  
0.1153288      4.090638e-05   4.090638e-05  
0.1156724      4.101405e-05   4.101405e-05  
0.1160161      4.112168e-05   4.112168e-05  
0.11636        4.122933e-05   4.122933e-05  
0.1167042      4.133699e-05   4.133699e-05  
0.1170487      4.144467e-05   4.144467e-05  
0.1173935      4.155235e-05   4.155235e-05  
0.1177384      4.166001e-05   4.166001e-05  
0.1180836      4.176768e-05   4.176768e-05  
0.118429       4.187536e-05   4.187536e-05  
0.1187747      4.198306e-05   4.198306e-05  
0.1191206      4.209072e-05   4.209072e-05  
0.1194667      4.21984e-05    4.21984e-05   
0.1198131      4.23061e-05    4.23061e-05   
0.1201598      4.24138e-05    4.24138e-05   
0.1205067      4.252152e-05   4.252152e-05  
0.1208538      4.262922e-05   4.262922e-05  
0.1212011      4.273692e-05   4.273692e-05  
0.1215488      4.284464e-05   4.284464e-05  
0.1218965      4.295233e-05   4.295233e-05  
0.1222446      4.306004e-05   4.306004e-05  
0.1225929      4.316776e-05   4.316776e-05  
0.1229413      4.327545e-05   4.327545e-05  
0.1232901      4.338315e-05   4.338315e-05  
0.1236391      4.349087e-05   4.349087e-05  
0.1239884      4.359861e-05   4.359861e-05  
0.1243378      4.370631e-05   4.370631e-05  
0.1246875      4.381403e-05   4.381403e-05  
0.1250375      4.392177e-05   4.392177e-05  
0.1253878      4.402952e-05   4.402952e-05  
0.1257382      4.413724e-05   4.413724e-05  
0.1260888      4.424498e-05   4.424498e-05  
0.1264397      4.435269e-05   4.435269e-05  
0.1267908      4.446041e-05   4.446041e-05  
0.1271422      4.456815e-05   4.456815e-05  
0.1274937      4.467586e-05   4.467586e-05  
0.1278455      4.478359e-05   4.478359e-05  
0.1281975      4.489129e-05   4.489129e-05  
0.1285497      4.499901e-05   4.499901e-05  
0.1289023      4.510674e-05   4.510674e-05  
0.1292549      4.521444e-05   4.521444e-05  
0.1296079      4.532216e-05   4.532216e-05  
0.129961       4.542985e-05   4.542985e-05  
0.1303144      4.553756e-05   4.553756e-05  
0.130668       4.564529e-05   4.564529e-05  
0.1310219      4.575299e-05   4.575299e-05  
0.131376       4.58607e-05    4.58607e-05   
0.1317302      4.596839e-05   4.596839e-05  
0.1320848      4.607609e-05   4.607609e-05  
0.1324395      4.618377e-05   4.618377e-05  
0.1327944      4.629146e-05   4.629146e-05  
0.1331495      4.639913e-05   4.639913e-05  
0.133505       4.650681e-05   4.650681e-05  
0.1338607      4.661451e-05   4.661451e-05  
0.1342165      4.672219e-05   4.672219e-05  
0.1345727      4.682988e-05   4.682988e-05  
0.1349289      4.693754e-05   4.693754e-05  
0.1352855      4.704523e-05   4.704523e-05  
0.1356424      4.715293e-05   4.715293e-05  
0.1359994      4.72606e-05    4.72606e-05   
0.1363568      4.736829e-05   4.736829e-05  
0.1367142      4.747596e-05   4.747596e-05  
0.1370718      4.75836e-05    4.75836e-05   
0.1374298      4.769125e-05   4.769125e-05  
0.1377878      4.779888e-05   4.779888e-05  
0.1381462      4.790653e-05   4.790653e-05  
0.1385047      4.801416e-05   4.801416e-05  
0.1388633      4.812175e-05   4.812175e-05  
0.1392223      4.822937e-05   4.822937e-05  
0.1395814      4.833696e-05   4.833696e-05  
0.1399407      4.844452e-05   4.844452e-05  
0.1403002      4.855211e-05   4.855211e-05  
0.1406599      4.865966e-05   4.865966e-05  
0.1410199      4.876724e-05   4.876724e-05  
0.1413801      4.887479e-05   4.887479e-05  
0.1417404      4.898231e-05   4.898231e-05  
0.142101       4.908986e-05   4.908986e-05  
0.1424618      4.919738e-05   4.919738e-05  
0.1428228      4.930491e-05   4.930491e-05  
0.1431841      4.941243e-05   4.941243e-05  
0.1435454      4.951991e-05   4.951991e-05  
0.1439071      4.962742e-05   4.962742e-05  
0.1442689      4.97349e-05    4.97349e-05   
0.1446311      4.984241e-05   4.984241e-05  
0.1449934      4.994988e-05   4.994988e-05  
0.1453558      5.005733e-05   5.005733e-05  
0.1457186      5.016481e-05   5.016481e-05  
0.1460815      5.027225e-05   5.027225e-05  
0.1464447      5.037972e-05   5.037972e-05  
0.1468081      5.048717e-05   5.048717e-05  
0.1471716      5.059459e-05   5.059459e-05  
0.1475354      5.070202e-05   5.070202e-05  
0.1478994      5.080944e-05   5.080944e-05  
0.1482637      5.091688e-05   5.091688e-05  
0.1486282      5.102429e-05   5.102429e-05  
0.1489928      5.113167e-05   5.113167e-05  
0.1493577      5.123908e-05   5.123908e-05  
0.1497228      5.134647e-05   5.134647e-05  
0.1500882      5.145387e-05   5.145387e-05  
0.1504537      5.156126e-05   5.156126e-05  
0.1508196      5.166866e-05   5.166866e-05  
0.1511858      5.177608e-05   5.177608e-05  
0.1515521      5.188349e-05   5.188349e-05  
0.1519188      5.199091e-05   5.199091e-05  
0.1522856      5.209831e-05   5.209831e-05  
0.1526527      5.220573e-05   5.220573e-05  
0.15302        5.231313e-05   5.231313e-05  
0.1533877      5.242055e-05   5.242055e-05  
0.1537554      5.252795e-05   5.252795e-05  
0.1541235      5.263537e-05   5.263537e-05  
0.1544918      5.274277e-05   5.274277e-05  
0.1548603      5.285019e-05   5.285019e-05  
0.1552292      5.295763e-05   5.295763e-05  
0.1555983      5.306505e-05   5.306505e-05  
0.1559677      5.317249e-05   5.317249e-05  
0.1563372      5.327991e-05   5.327991e-05  
0.1567071      5.338736e-05   5.338736e-05  
0.1570773      5.349482e-05   5.349482e-05  
0.1574476      5.360227e-05   5.360227e-05  
0.1578183      5.370973e-05   5.370973e-05  
0.1581891      5.381718e-05   5.381718e-05  
0.1585603      5.392465e-05   5.392465e-05  
0.1589317      5.403209e-05   5.403209e-05  
0.1593033      5.413957e-05   5.413957e-05  
0.1596751      5.424701e-05   5.424701e-05  
0.1600473      5.435449e-05   5.435449e-05  
0.1604196      5.446193e-05   5.446193e-05  
0.1607921      5.456936e-05   5.456936e-05  
0.1611649      5.467681e-05   5.467681e-05  
0.1615381      5.478429e-05   5.478429e-05  
0.1619114      5.489175e-05   5.489175e-05  
0.162285       5.499923e-05   5.499923e-05  
0.1626588      5.510668e-05   5.510668e-05  
0.163033       5.521417e-05   5.521417e-05  
0.1634075      5.532167e-05   5.532167e-05  
0.1637821      5.542916e-05   5.542916e-05  
0.1641571      5.553667e-05   5.553667e-05  
0.1645324      5.564421e-05   5.564421e-05  
0.1649079      5.575173e-05   5.575173e-05  
0.1652837      5.585927e-05   5.585927e-05  
0.1656597      5.596679e-05   5.596679e-05  
0.1660361      5.607434e-05   5.607434e-05  
0.1664126      5.618186e-05   5.618186e-05  
0.1667893      5.628937e-05   5.628937e-05  
0.1671663      5.63969e-05    5.63969e-05   
0.1675435      5.650441e-05   5.650441e-05  
0.167921       5.661194e-05   5.661194e-05  
0.1682987      5.671946e-05   5.671946e-05  
0.1686766      5.682695e-05   5.682695e-05  
0.1690548      5.693447e-05   5.693447e-05  
0.1694332      5.704197e-05   5.704197e-05  
0.1698119      5.71495e-05    5.71495e-05   
0.1701908      5.7257e-05     5.7257e-05    
0.1705701      5.736453e-05   5.736453e-05  
0.1709495      5.747205e-05   5.747205e-05  
0.1713293      5.757959e-05   5.757959e-05  
0.1717092      5.768711e-05   5.768711e-05  
0.1720894      5.77946e-05    5.77946e-05   
0.1724698      5.790213e-05   5.790213e-05  
0.1728505      5.800964e-05   5.800964e-05  
0.1732315      5.811717e-05   5.811717e-05  
0.1736127      5.822468e-05   5.822468e-05  
0.173994       5.833218e-05   5.833218e-05  
0.1743757      5.84397e-05    5.84397e-05   
0.1747576      5.85472e-05    5.85472e-05   
0.1751396      5.865468e-05   5.865468e-05  
0.1755221      5.876219e-05   5.876219e-05  
0.1759046      5.886968e-05   5.886968e-05  
0.1762874      5.897715e-05   5.897715e-05  
0.1766705      5.908465e-05   5.908465e-05  
0.1770538      5.919213e-05   5.919213e-05  
0.1774373      5.929959e-05   5.929959e-05  
0.177821       5.940703e-05   5.940703e-05  
0.178205       5.95145e-05    5.95145e-05   
0.1785892      5.962195e-05   5.962195e-05  
0.1789736      5.972938e-05   5.972938e-05  
0.1793583      5.983684e-05   5.983684e-05  
0.1797432      5.994428e-05   5.994428e-05  
0.1801285      6.005175e-05   6.005175e-05  
0.1805139      6.015921e-05   6.015921e-05  
0.1808996      6.026664e-05   6.026664e-05  
0.1812856      6.03741e-05    6.03741e-05   
0.1816718      6.048155e-05   6.048155e-05  
0.1820581      6.058897e-05   6.058897e-05  
0.1824447      6.069638e-05   6.069638e-05  
0.1828314      6.080376e-05   6.080376e-05  
0.1832185      6.091118e-05   6.091118e-05  
0.1836058      6.101858e-05   6.101858e-05  
0.1839933      6.112596e-05   6.112596e-05  
0.1843809      6.123332e-05   6.123332e-05  
0.1847688      6.134067e-05   6.134067e-05  
0.185157       6.144804e-05   6.144804e-05  
0.1855454      6.15554e-05    6.15554e-05   
0.1859339      6.166274e-05   6.166274e-05  
0.1863229      6.177011e-05   6.177011e-05  
0.186712       6.187746e-05   6.187746e-05  
0.1871013      6.198479e-05   6.198479e-05  
0.1874908      6.209211e-05   6.209211e-05  
0.1878807      6.219945e-05   6.219945e-05  
0.1882708      6.230678e-05   6.230678e-05  
0.188661       6.24141e-05    6.24141e-05   
0.1890515      6.252139e-05   6.252139e-05  
0.1894423      6.262872e-05   6.262872e-05  
0.1898333      6.273603e-05   6.273603e-05  
0.1902247      6.284337e-05   6.284337e-05  
0.1906163      6.29507e-05    6.29507e-05   
0.191008       6.3058e-05     6.3058e-05    
0.1914002      6.316535e-05   6.316535e-05  
0.1917925      6.327267e-05   6.327267e-05  
0.192185       6.337998e-05   6.337998e-05  
0.1925778      6.348727e-05   6.348727e-05  
0.1929707      6.359454e-05   6.359454e-05  
0.193364       6.370184e-05   6.370184e-05  
0.1937574      6.380913e-05   6.380913e-05  
0.1941511      6.391641e-05   6.391641e-05  
0.194545       6.402366e-05   6.402366e-05  
0.1949392      6.413095e-05   6.413095e-05  
0.1953337      6.423822e-05   6.423822e-05  
0.1957283      6.434548e-05   6.434548e-05  
0.1961231      6.445272e-05   6.445272e-05  
0.1965184      6.455999e-05   6.455999e-05  
0.1969138      6.466725e-05   6.466725e-05  
0.1973094      6.47745e-05    6.47745e-05   
0.1977054      6.488177e-05   6.488177e-05  
0.1981016      6.498904e-05   6.498904e-05  
0.1984982      6.509633e-05   6.509633e-05  
0.1988949      6.520361e-05   6.520361e-05  
0.1992919      6.531088e-05   6.531088e-05  
0.1996893      6.541818e-05   6.541818e-05  
0.2000869      6.552547e-05   6.552547e-05  
0.2004846      6.563274e-05   6.563274e-05  
0.2008828      6.574005e-05   6.574005e-05  
0.2012812      6.584734e-05   6.584734e-05  
0.2016797      6.595461e-05   6.595461e-05  
0.2020785      6.606187e-05   6.606187e-05  
0.2024774      6.616911e-05   6.616911e-05  
0.2028766      6.627634e-05   6.627634e-05  
0.2032762      6.638361e-05   6.638361e-05  
0.2036759      6.649086e-05   6.649086e-05  
0.2040759      6.659809e-05   6.659809e-05  
0.2044761      6.670531e-05   6.670531e-05  
0.2048764      6.681252e-05   6.681252e-05  
0.205277       6.691971e-05   6.691971e-05  
0.2056778      6.702688e-05   6.702688e-05  
0.2060787      6.713404e-05   6.713404e-05  
0.2064801      6.724123e-05   6.724123e-05  
0.2068817      6.734842e-05   6.734842e-05  
0.2072835      6.745558e-05   6.745558e-05  