# Probe 0 (0 0 0)
# Probe 1 (0 0.011 0)
# Time         0              1             
0              0              0             
1.199999e-06   4.377198e-05   4.377198e-05  
2.639996e-06   5.922081e-05   5.922081e-05  
4.367991e-06   6.724923e-05   6.724923e-05  
6.441582e-06   7.219109e-05   7.219109e-05  
8.92989e-06    7.553651e-05   7.553651e-05  
1.191586e-05   7.794206e-05   7.794206e-05  
1.549901e-05   7.974449e-05   7.974449e-05  
1.97988e-05    8.11354e-05    8.11354e-05   
2.495853e-05   8.223242e-05   8.223242e-05  
3.115017e-05   8.311206e-05   8.311206e-05  
3.858013e-05   8.382645e-05   8.382645e-05  
4.749602e-05   8.441243e-05   8.441243e-05  
5.819505e-05   8.489684e-05   8.489684e-05  
7.103374e-05   8.529974e-05   8.529974e-05  
8.644002e-05   8.563645e-05   8.563645e-05  
0.0001049275   8.591884e-05   8.591884e-05  
0.0001271124   8.615629e-05   8.615629e-05  
0.0001537338   8.635626e-05   8.635626e-05  
0.0001856788   8.652475e-05   8.652475e-05  
0.0002240123   8.666665e-05   8.666665e-05  
0.0002700107   8.67859e-05    8.67859e-05   
0.0003252078   8.688574e-05   8.688574e-05  
0.0003914421   8.69688e-05    8.69688e-05   
0.0004709212   8.70372e-05    8.70372e-05   
0.0005662961   8.709266e-05   8.709266e-05  
0.0006804389   8.713642e-05   8.713642e-05  
0.0008138772   8.716912e-05   8.716912e-05  
0.0009672442   8.719189e-05   8.719189e-05  
0.001141292    8.720593e-05   8.720593e-05  
0.001336801    8.721232e-05   8.721232e-05  
0.00155466     8.721193e-05   8.721193e-05  
0.00178461     8.720598e-05   8.720598e-05  
0.002015358    8.719615e-05   8.719615e-05  
0.002246213    8.718355e-05   8.718355e-05  
0.002477068    8.716888e-05   8.716888e-05  
0.002707869    8.715264e-05   8.715264e-05  
0.00293867     8.713518e-05   8.713518e-05  
0.003169418    8.711675e-05   8.711675e-05  
0.003400219    8.709754e-05   8.709754e-05  
0.003631074    8.707768e-05   8.707768e-05  
0.003862036    8.705728e-05   8.705728e-05  
0.004093158    8.703643e-05   8.703643e-05  
0.004324388    8.70152e-05    8.70152e-05   
0.004555833    8.699363e-05   8.699363e-05  
0.004787493    8.697177e-05   8.697177e-05  
0.005019369    8.694966e-05   8.694966e-05  
0.00525157     8.692731e-05   8.692731e-05  
0.005484096    8.690476e-05   8.690476e-05  
0.005717004    8.688202e-05   8.688202e-05  
0.005950294    8.68591e-05    8.68591e-05   
0.006184023    8.683603e-05   8.683603e-05  
0.006418138    8.681281e-05   8.681281e-05  
0.006652695    8.678946e-05   8.678946e-05  
0.006887695    8.676598e-05   8.676598e-05  
0.007123141    8.674238e-05   8.674238e-05  
0.007359035    8.671868e-05   8.671868e-05  
0.007595435    8.669487e-05   8.669487e-05  
0.007832342    8.667095e-05   8.667095e-05  
0.008069759    8.664694e-05   8.664694e-05  
0.008307689    8.662284e-05   8.662284e-05  
0.008546192    8.659865e-05   8.659865e-05  
0.008785269    8.657436e-05   8.657436e-05  
0.009024924    8.654999e-05   8.654999e-05  
0.009265161    8.652554e-05   8.652554e-05  
0.009505922    8.650101e-05   8.650101e-05  
0.009747271    8.64764e-05    8.64764e-05   
0.009989209    8.645172e-05   8.645172e-05  
0.01023168     8.642697e-05   8.642697e-05  
0.01047475     8.640215e-05   8.640215e-05  
0.01071835     8.637726e-05   8.637726e-05  
0.01096256     8.635231e-05   8.635231e-05  
0.01120737     8.632728e-05   8.632728e-05  
0.01145273     8.63022e-05    8.63022e-05   
0.0116987      8.627705e-05   8.627705e-05  
0.01194522     8.625185e-05   8.625185e-05  
0.01219236     8.622658e-05   8.622658e-05  
0.01244005     8.620125e-05   8.620125e-05  
0.01268837     8.617586e-05   8.617586e-05  
0.01293725     8.615042e-05   8.615042e-05  
0.01318676     8.612492e-05   8.612492e-05  
0.0134369      8.609935e-05   8.609935e-05  
0.01368762     8.607374e-05   8.607374e-05  
0.01393891     8.604807e-05   8.604807e-05  
0.01419077     8.602235e-05   8.602235e-05  
0.01444322     8.599657e-05   8.599657e-05  
0.01469619     8.597076e-05   8.597076e-05  
0.01494968     8.59449e-05    8.59449e-05   
0.01520369     8.591899e-05   8.591899e-05  
0.01545822     8.589304e-05   8.589304e-05  
0.01571328     8.586705e-05   8.586705e-05  
0.01596888     8.584102e-05   8.584102e-05  
0.016225       8.581494e-05   8.581494e-05  
0.01648159     8.578883e-05   8.578883e-05  
0.01673872     8.576267e-05   8.576267e-05  
0.01699639     8.573647e-05   8.573647e-05  
0.01725453     8.571024e-05   8.571024e-05  
0.01751315     8.568398e-05   8.568398e-05  
0.01777231     8.565767e-05   8.565767e-05  
0.01803195     8.563132e-05   8.563132e-05  
0.01829208     8.560495e-05   8.560495e-05  
0.01855269     8.557854e-05   8.557854e-05  
0.01881385     8.555208e-05   8.555208e-05  
0.0190755      8.55256e-05    8.55256e-05   
0.01933764     8.549908e-05   8.549908e-05  
0.0196002      8.547253e-05   8.547253e-05  
0.01986325     8.544595e-05   8.544595e-05  
0.0201268      8.541933e-05   8.541933e-05  
0.02039077     8.539269e-05   8.539269e-05  
0.02065525     8.536602e-05   8.536602e-05  
0.02092015     8.533932e-05   8.533932e-05  
0.02118548     8.531259e-05   8.531259e-05  
0.02145125     8.528584e-05   8.528584e-05  
0.02171745     8.525906e-05   8.525906e-05  
0.02198408     8.523226e-05   8.523226e-05  
0.02225123     8.520542e-05   8.520542e-05  
0.02251881     8.517855e-05   8.517855e-05  
0.02278676     8.515167e-05   8.515167e-05  
0.02305515     8.512476e-05   8.512476e-05  
0.02332399     8.509783e-05   8.509783e-05  
0.02359326     8.507087e-05   8.507087e-05  
0.02386299     8.504388e-05   8.504388e-05  
0.02413309     8.501688e-05   8.501688e-05  
0.02440364     8.498985e-05   8.498985e-05  
0.02467456     8.49628e-05    8.49628e-05   
0.02494594     8.493573e-05   8.493573e-05  
0.02521769     8.490864e-05   8.490864e-05  
0.02548982     8.488153e-05   8.488153e-05  
0.02576241     8.485439e-05   8.485439e-05  
0.02603539     8.482724e-05   8.482724e-05  
0.02630874     8.480007e-05   8.480007e-05  
0.02658256     8.477287e-05   8.477287e-05  
0.02685676     8.474565e-05   8.474565e-05  
0.02713135     8.471842e-05   8.471842e-05  
0.02740633     8.469117e-05   8.469117e-05  
0.02768161     8.466391e-05   8.466391e-05  
0.02795729     8.463663e-05   8.463663e-05  
0.02823336     8.460933e-05   8.460933e-05  
0.02850975     8.458202e-05   8.458202e-05  
0.02878653     8.45547e-05    8.45547e-05   
0.0290637      8.452735e-05   8.452735e-05  
0.02934119     8.45e-05       8.45e-05      
0.029619       8.447263e-05   8.447263e-05  
0.0298972      8.444525e-05   8.444525e-05  
0.03017573     8.441786e-05   8.441786e-05  
0.03045457     8.439045e-05   8.439045e-05  
0.03073382     8.436303e-05   8.436303e-05  
0.03101339     8.43356e-05    8.43356e-05   
0.03129328     8.430816e-05   8.430816e-05  
0.0315735      8.428071e-05   8.428071e-05  
0.03185412     8.425324e-05   8.425324e-05  
0.03213507     8.422576e-05   8.422576e-05  
0.03241634     8.419827e-05   8.419827e-05  
0.03269794     8.417077e-05   8.417077e-05  
0.03297987     8.414326e-05   8.414326e-05  
0.03326213     8.411574e-05   8.411574e-05  
0.03354472     8.408821e-05   8.408821e-05  
0.03382764     8.406067e-05   8.406067e-05  
0.03411098     8.403311e-05   8.403311e-05  
0.03439464     8.400554e-05   8.400554e-05  
0.03467864     8.397796e-05   8.397796e-05  
0.03496298     8.395037e-05   8.395037e-05  
0.03524765     8.392277e-05   8.392277e-05  
0.03553266     8.389516e-05   8.389516e-05  
0.03581801     8.386754e-05   8.386754e-05  
0.0361036      8.383992e-05   8.383992e-05  
0.03638954     8.381229e-05   8.381229e-05  
0.03667582     8.378464e-05   8.378464e-05  
0.03696244     8.375699e-05   8.375699e-05  
0.0372494      8.372933e-05   8.372933e-05  
0.03753662     8.370166e-05   8.370166e-05  
0.03782418     8.367398e-05   8.367398e-05  
0.03811199     8.364631e-05   8.364631e-05  
0.03840016     8.361862e-05   8.361862e-05  
0.03868867     8.359092e-05   8.359092e-05  
0.03897743     8.356322e-05   8.356322e-05  
0.03926655     8.353551e-05   8.353551e-05  
0.03955593     8.350779e-05   8.350779e-05  
0.03984565     8.348007e-05   8.348007e-05  
0.04013564     8.345235e-05   8.345235e-05  
0.04042598     8.342461e-05   8.342461e-05  
0.04071668     8.339686e-05   8.339686e-05  
0.04100763     8.336911e-05   8.336911e-05  
0.04129894     8.334135e-05   8.334135e-05  
0.04159052     8.331359e-05   8.331359e-05  
0.04188236     8.328583e-05   8.328583e-05  
0.04217456     8.325806e-05   8.325806e-05  
0.04246702     8.323028e-05   8.323028e-05  
0.04275985     8.320249e-05   8.320249e-05  
0.04305294     8.31747e-05    8.31747e-05   
0.0433463      8.314691e-05   8.314691e-05  
0.04363993     8.311912e-05   8.311912e-05  
0.04393393     8.309132e-05   8.309132e-05  
0.04422819     8.306351e-05   8.306351e-05  
0.04452273     8.30357e-05    8.30357e-05   
0.04481754     8.300789e-05   8.300789e-05  
0.04511262     8.298008e-05   8.298008e-05  
0.04540798     8.295226e-05   8.295226e-05  
0.04570361     8.292445e-05   8.292445e-05  
0.04599942     8.289664e-05   8.289664e-05  
0.04629551     8.286882e-05   8.286882e-05  
0.04659188     8.284101e-05   8.284101e-05  
0.04688852     8.281319e-05   8.281319e-05  
0.04718544     8.278537e-05   8.278537e-05  
0.04748254     8.275756e-05   8.275756e-05  
0.04777993     8.272974e-05   8.272974e-05  
0.04807759     8.270193e-05   8.270193e-05  
0.04837553     8.267411e-05   8.267411e-05  
0.04867375     8.264628e-05   8.264628e-05  
0.04897216     8.261847e-05   8.261847e-05  
0.04927085     8.259065e-05   8.259065e-05  
0.04956982     8.256283e-05   8.256283e-05  
0.04986907     8.253501e-05   8.253501e-05  
0.05016852     8.250719e-05   8.250719e-05  
0.05046824     8.247937e-05   8.247937e-05  
0.05076825     8.245155e-05   8.245155e-05  
0.05106845     8.242373e-05   8.242373e-05  
0.05136894     8.239592e-05   8.239592e-05  
0.05166971     8.23681e-05    8.23681e-05   
0.05197067     8.234028e-05   8.234028e-05  
0.05227192     8.231247e-05   8.231247e-05  
0.05257336     8.228466e-05   8.228466e-05  
0.05287509     8.225684e-05   8.225684e-05  
0.05317701     8.222904e-05   8.222904e-05  
0.05347922     8.220123e-05   8.220123e-05  
0.05378162     8.217343e-05   8.217343e-05  
0.05408431     8.214562e-05   8.214562e-05  
0.0543872      8.211782e-05   8.211782e-05  
0.05469038     8.209002e-05   8.209002e-05  
0.05499375     8.206223e-05   8.206223e-05  
0.05529732     8.203444e-05   8.203444e-05  
0.05560118     8.200665e-05   8.200665e-05  
0.05590524     8.197886e-05   8.197886e-05  
0.05620949     8.195109e-05   8.195109e-05  
0.05651404     8.19233e-05    8.19233e-05   
0.05681878     8.189553e-05   8.189553e-05  
0.05712372     8.186776e-05   8.186776e-05  
0.05742886     8.184e-05      8.184e-05     
0.05773419     8.181224e-05   8.181224e-05  
0.05803973     8.178449e-05   8.178449e-05  
0.05834546     8.175675e-05   8.175675e-05  
0.05865139     8.172901e-05   8.172901e-05  
0.05895752     8.170128e-05   8.170128e-05  
0.05926385     8.167355e-05   8.167355e-05  
0.05957038     8.164583e-05   8.164583e-05  
0.0598771      8.161812e-05   8.161812e-05  
0.06018403     8.159042e-05   8.159042e-05  
0.06049106     8.156272e-05   8.156272e-05  
0.06079829     8.153504e-05   8.153504e-05  
0.06110572     8.150736e-05   8.150736e-05  
0.06141336     8.147969e-05   8.147969e-05  
0.06172119     8.145202e-05   8.145202e-05  
0.06202923     8.142436e-05   8.142436e-05  
0.06233747     8.13967e-05    8.13967e-05   
0.06264581     8.136906e-05   8.136906e-05  
0.06295435     8.134143e-05   8.134143e-05  
0.0632631      8.13138e-05    8.13138e-05   
0.06357205     8.128618e-05   8.128618e-05  
0.0638811      8.125857e-05   8.125857e-05  
0.06419035     8.123097e-05   8.123097e-05  
0.06449981     8.120338e-05   8.120338e-05  
0.06480948     8.117579e-05   8.117579e-05  
0.06511935     8.114821e-05   8.114821e-05  
0.06542933     8.112064e-05   8.112064e-05  
0.0657395      8.109308e-05   8.109308e-05  
0.06604989     8.106553e-05   8.106553e-05  
0.06636048     8.103798e-05   8.103798e-05  
0.06667128     8.101043e-05   8.101043e-05  
0.06698218     8.09829e-05    8.09829e-05   
0.06729329     8.095538e-05   8.095538e-05  
0.06760461     8.092786e-05   8.092786e-05  
0.06791603     8.090036e-05   8.090036e-05  
0.06822766     8.087287e-05   8.087287e-05  
0.0685395      8.084538e-05   8.084538e-05  
0.06885155     8.081789e-05   8.081789e-05  
0.0691638      8.079042e-05   8.079042e-05  
0.06947616     8.076295e-05   8.076295e-05  
0.06978873     8.073549e-05   8.073549e-05  
0.07010152     8.070804e-05   8.070804e-05  
0.07041451     8.06806e-05    8.06806e-05   
0.07072771     8.065316e-05   8.065316e-05  
0.07104112     8.062572e-05   8.062572e-05  
0.07135475     8.059829e-05   8.059829e-05  
0.07166859     8.057087e-05   8.057087e-05  
0.07198264     8.054345e-05   8.054345e-05  
0.0722969      8.051604e-05   8.051604e-05  
0.07261138     8.048864e-05   8.048864e-05  
0.07292606     8.046124e-05   8.046124e-05  
0.07324097     8.043384e-05   8.043384e-05  
0.07355608     8.040645e-05   8.040645e-05  
0.07387142     8.037907e-05   8.037907e-05  
0.07418685     8.03517e-05    8.03517e-05   
0.07450251     8.032434e-05   8.032434e-05  
0.07481838     8.029698e-05   8.029698e-05  
0.07513446     8.026963e-05   8.026963e-05  
0.07545076     8.024229e-05   8.024229e-05  
0.07576728     8.021495e-05   8.021495e-05  
0.07608402     8.018761e-05   8.018761e-05  
0.07640097     8.016028e-05   8.016028e-05  
0.07671814     8.013296e-05   8.013296e-05  
0.07703553     8.010564e-05   8.010564e-05  
0.07735313     8.007833e-05   8.007833e-05  
0.07767085     8.005103e-05   8.005103e-05  
0.07798879     8.002374e-05   8.002374e-05  
0.07830694     7.999645e-05   7.999645e-05  
0.07862531     7.996917e-05   7.996917e-05  
0.07894391     7.994189e-05   7.994189e-05  
0.07926261     7.991463e-05   7.991463e-05  
0.07958154     7.988738e-05   7.988738e-05  
0.07990068     7.986013e-05   7.986013e-05  
0.08022005     7.983288e-05   7.983288e-05  
0.08053964     7.980564e-05   7.980564e-05  
0.08085945     7.977841e-05   7.977841e-05  
0.08117949     7.975118e-05   7.975118e-05  
0.08149975     7.972396e-05   7.972396e-05  
0.08182023     7.969674e-05   7.969674e-05  
0.08214093     7.966953e-05   7.966953e-05  
0.08246186     7.964232e-05   7.964232e-05  
0.08278302     7.961512e-05   7.961512e-05  
0.0831044      7.958792e-05   7.958792e-05  
0.08342589     7.956074e-05   7.956074e-05  
0.08374761     7.953356e-05   7.953356e-05  
0.08406955     7.950639e-05   7.950639e-05  
0.08439172     7.947922e-05   7.947922e-05  
0.08471412     7.945206e-05   7.945206e-05  
0.08503674     7.94249e-05    7.94249e-05   
0.0853596      7.939775e-05   7.939775e-05  
0.08568268     7.937061e-05   7.937061e-05  
0.08600599     7.934347e-05   7.934347e-05  
0.08632952     7.931633e-05   7.931633e-05  
0.08665329     7.92892e-05    7.92892e-05   
0.08697729     7.926207e-05   7.926207e-05  
0.08730151     7.923495e-05   7.923495e-05  
0.08762586     7.920785e-05   7.920785e-05  
0.08795043     7.918075e-05   7.918075e-05  
0.08827523     7.915365e-05   7.915365e-05  
0.08860027     7.912656e-05   7.912656e-05  
0.08892554     7.909948e-05   7.909948e-05  
0.08925104     7.90724e-05    7.90724e-05   
0.08957677     7.904532e-05   7.904532e-05  
0.08990274     7.901825e-05   7.901825e-05  
0.09022882     7.899119e-05   7.899119e-05  
0.09055513     7.896414e-05   7.896414e-05  
0.09088169     7.89371e-05    7.89371e-05   
0.09120847     7.891006e-05   7.891006e-05  
0.09153549     7.888302e-05   7.888302e-05  
0.09186275     7.885599e-05   7.885599e-05  
0.09219024     7.882896e-05   7.882896e-05  
0.09251785     7.880195e-05   7.880195e-05  
0.0928457      7.877494e-05   7.877494e-05  
0.09317379     7.874794e-05   7.874794e-05  
0.09350211     7.872094e-05   7.872094e-05  
0.09383067     7.869395e-05   7.869395e-05  
0.09415947     7.866696e-05   7.866696e-05  
0.0944885      7.863998e-05   7.863998e-05  
0.09481778     7.8613e-05     7.8613e-05    
0.09514718     7.858604e-05   7.858604e-05  
0.09547681     7.855908e-05   7.855908e-05  
0.09580669     7.853212e-05   7.853212e-05  
0.09613681     7.850517e-05   7.850517e-05  
0.09646717     7.847823e-05   7.847823e-05  
0.09679777     7.845129e-05   7.845129e-05  
0.09712861     7.842435e-05   7.842435e-05  
0.09745958     7.839743e-05   7.839743e-05  
0.09779079     7.837051e-05   7.837051e-05  
0.09812224     7.83436e-05    7.83436e-05   
0.09845393     7.831669e-05   7.831669e-05  
0.09878587     7.828979e-05   7.828979e-05  
0.09911793     7.82629e-05    7.82629e-05   
0.09945024     7.823602e-05   7.823602e-05  
0.09978279     7.820914e-05   7.820914e-05  
0.1001156      7.818226e-05   7.818226e-05  
0.1004485      7.81554e-05    7.81554e-05   
0.1007817      7.812854e-05   7.812854e-05  
0.1011151      7.810169e-05   7.810169e-05  
0.1014488      7.807484e-05   7.807484e-05  
0.1017827      7.8048e-05     7.8048e-05    
0.1021167      7.802117e-05   7.802117e-05  
0.102451       7.799435e-05   7.799435e-05  
0.1027855      7.796753e-05   7.796753e-05  
0.1031203      7.794071e-05   7.794071e-05  
0.1034553      7.79139e-05    7.79139e-05   
0.1037905      7.78871e-05    7.78871e-05   
0.1041259      7.786031e-05   7.786031e-05  
0.1044615      7.783352e-05   7.783352e-05  
0.1047975      7.780674e-05   7.780674e-05  
0.1051336      7.777996e-05   7.777996e-05  
0.10547        7.775318e-05   7.775318e-05  
0.1058067      7.772641e-05   7.772641e-05  
0.1061436      7.769965e-05   7.769965e-05  
0.1064808      7.767288e-05   7.767288e-05  
0.1068182      7.764612e-05   7.764612e-05  
0.1071558      7.761938e-05   7.761938e-05  
0.1074936      7.759264e-05   7.759264e-05  
0.1078317      7.75659e-05    7.75659e-05   
0.10817        7.753917e-05   7.753917e-05  
0.1085086      7.751244e-05   7.751244e-05  
0.1088474      7.748572e-05   7.748572e-05  
0.1091865      7.7459e-05     7.7459e-05    
0.1095258      7.743229e-05   7.743229e-05  
0.1098652      7.740559e-05   7.740559e-05  
0.110205       7.737889e-05   7.737889e-05  
0.110545       7.73522e-05    7.73522e-05   
0.1108853      7.732551e-05   7.732551e-05  
0.1112257      7.729883e-05   7.729883e-05  
0.1115663      7.727216e-05   7.727216e-05  
0.1119072      7.72455e-05    7.72455e-05   
0.1122483      7.721884e-05   7.721884e-05  
0.1125896      7.719219e-05   7.719219e-05  
0.1129312      7.716555e-05   7.716555e-05  
0.113273       7.71389e-05    7.71389e-05   
0.113615       7.711228e-05   7.711228e-05  
0.1139572      7.708565e-05   7.708565e-05  
0.1142997      7.705903e-05   7.705903e-05  
0.1146425      7.703242e-05   7.703242e-05  
0.1149855      7.70058e-05    7.70058e-05   
0.1153288      7.697919e-05   7.697919e-05  
0.1156724      7.695259e-05   7.695259e-05  
0.1160161      7.6926e-05     7.6926e-05    
0.11636        7.689941e-05   7.689941e-05  
0.1167042      7.687283e-05   7.687283e-05  
0.1170487      7.684625e-05   7.684625e-05  
0.1173935      7.681967e-05   7.681967e-05  
0.1177384      7.679311e-05   7.679311e-05  
0.1180836      7.676655e-05   7.676655e-05  
0.118429       7.673999e-05   7.673999e-05  
0.1187747      7.671344e-05   7.671344e-05  
0.1191206      7.668691e-05   7.668691e-05  
0.1194667      7.666037e-05   7.666037e-05  
0.1198131      7.663384e-05   7.663384e-05  
0.1201598      7.660731e-05   7.660731e-05  
0.1205067      7.658079e-05   7.658079e-05  
0.1208538      7.655428e-05   7.655428e-05  
0.1212011      7.652778e-05   7.652778e-05  
0.1215488      7.650127e-05   7.650127e-05  
0.1218965      7.647478e-05   7.647478e-05  
0.1222446      7.64483e-05    7.64483e-05   
0.1225929      7.642182e-05   7.642182e-05  
0.1229413      7.639535e-05   7.639535e-05  
0.1232901      7.636888e-05   7.636888e-05  
0.1236391      7.634242e-05   7.634242e-05  
0.1239884      7.631596e-05   7.631596e-05  
0.1243378      7.628952e-05   7.628952e-05  
0.1246875      7.626308e-05   7.626308e-05  
0.1250375      7.623664e-05   7.623664e-05  
0.1253878      7.621021e-05   7.621021e-05  
0.1257382      7.618379e-05   7.618379e-05  
0.1260888      7.615737e-05   7.615737e-05  
0.1264397      7.613096e-05   7.613096e-05  
0.1267908      7.610456e-05   7.610456e-05  
0.1271422      7.607817e-05   7.607817e-05  
0.1274937      7.605178e-05   7.605178e-05  
0.1278455      7.60254e-05    7.60254e-05   
0.1281975      7.599903e-05   7.599903e-05  
0.1285497      7.597267e-05   7.597267e-05  
0.1289023      7.594631e-05   7.594631e-05  
0.1292549      7.591996e-05   7.591996e-05  
0.1296079      7.589362e-05   7.589362e-05  
0.129961       7.586729e-05   7.586729e-05  
0.1303144      7.584096e-05   7.584096e-05  
0.130668       7.581464e-05   7.581464e-05  
0.1310219      7.578833e-05   7.578833e-05  
0.131376       7.576202e-05   7.576202e-05  
0.1317302      7.573572e-05   7.573572e-05  
0.1320848      7.570943e-05   7.570943e-05  
0.1324395      7.568315e-05   7.568315e-05  
0.1327944      7.565688e-05   7.565688e-05  
0.1331495      7.563062e-05   7.563062e-05  
0.133505       7.560436e-05   7.560436e-05  
0.1338607      7.55781e-05    7.55781e-05   
0.1342165      7.555186e-05   7.555186e-05  
0.1345727      7.552562e-05   7.552562e-05  
0.1349289      7.54994e-05    7.54994e-05   
0.1352855      7.547317e-05   7.547317e-05  
0.1356424      7.544695e-05   7.544695e-05  
0.1359994      7.542075e-05   7.542075e-05  
0.1363568      7.539454e-05   7.539454e-05  
0.1367142      7.536835e-05   7.536835e-05  
0.1370718      7.534217e-05   7.534217e-05  
0.1374298      7.5316e-05     7.5316e-05    
0.1377878      7.528984e-05   7.528984e-05  
0.1381462      7.526368e-05   7.526368e-05  
0.1385047      7.523753e-05   7.523753e-05  
0.1388633      7.52114e-05    7.52114e-05   
0.1392223      7.518527e-05   7.518527e-05  
0.1395814      7.515915e-05   7.515915e-05  
0.1399407      7.513305e-05   7.513305e-05  
0.1403002      7.510695e-05   7.510695e-05  
0.1406599      7.508086e-05   7.508086e-05  
0.1410199      7.505478e-05   7.505478e-05  
0.1413801      7.50287e-05    7.50287e-05   
0.1417404      7.500265e-05   7.500265e-05  
0.142101       7.497659e-05   7.497659e-05  
0.1424618      7.495055e-05   7.495055e-05  
0.1428228      7.492451e-05   7.492451e-05  
0.1431841      7.489848e-05   7.489848e-05  
0.1435454      7.487247e-05   7.487247e-05  
0.1439071      7.484645e-05   7.484645e-05  
0.1442689      7.482046e-05   7.482046e-05  
0.1446311      7.479446e-05   7.479446e-05  
0.1449934      7.476848e-05   7.476848e-05  
0.1453558      7.474251e-05   7.474251e-05  
0.1457186      7.471654e-05   7.471654e-05  
0.1460815      7.469058e-05   7.469058e-05  
0.1464447      7.466463e-05   7.466463e-05  
0.1468081      7.463869e-05   7.463869e-05  
0.1471716      7.461276e-05   7.461276e-05  
0.1475354      7.458684e-05   7.458684e-05  
0.1478994      7.456093e-05   7.456093e-05  
0.1482637      7.453502e-05   7.453502e-05  
0.1486282      7.450912e-05   7.450912e-05  
0.1489928      7.448324e-05   7.448324e-05  
0.1493577      7.445735e-05   7.445735e-05  
0.1497228      7.443149e-05   7.443149e-05  
0.1500882      7.440562e-05   7.440562e-05  
0.1504537      7.437976e-05   7.437976e-05  
0.1508196      7.435391e-05   7.435391e-05  
0.1511858      7.432806e-05   7.432806e-05  
0.1515521      7.430223e-05   7.430223e-05  
0.1519188      7.427639e-05   7.427639e-05  
0.1522856      7.425057e-05   7.425057e-05  
0.1526527      7.422475e-05   7.422475e-05  
0.15302        7.419894e-05   7.419894e-05  
0.1533877      7.417313e-05   7.417313e-05  
0.1537554      7.414734e-05   7.414734e-05  
0.1541235      7.412155e-05   7.412155e-05  
0.1544918      7.409577e-05   7.409577e-05  
0.1548603      7.406999e-05   7.406999e-05  
0.1552292      7.404421e-05   7.404421e-05  
0.1555983      7.401845e-05   7.401845e-05  
0.1559677      7.399269e-05   7.399269e-05  
0.1563372      7.396694e-05   7.396694e-05  
0.1567071      7.394119e-05   7.394119e-05  
0.1570773      7.391545e-05   7.391545e-05  
0.1574476      7.388971e-05   7.388971e-05  
0.1578183      7.386398e-05   7.386398e-05  
0.1581891      7.383826e-05   7.383826e-05  
0.1585603      7.381255e-05   7.381255e-05  
0.1589317      7.378684e-05   7.378684e-05  
0.1593033      7.376114e-05   7.376114e-05  
0.1596751      7.373545e-05   7.373545e-05  
0.1600473      7.370976e-05   7.370976e-05  
0.1604196      7.368408e-05   7.368408e-05  
0.1607921      7.365842e-05   7.365842e-05  
0.1611649      7.363275e-05   7.363275e-05  
0.1615381      7.360709e-05   7.360709e-05  
0.1619114      7.358144e-05   7.358144e-05  
0.162285       7.355579e-05   7.355579e-05  
0.1626588      7.353016e-05   7.353016e-05  
0.163033       7.350453e-05   7.350453e-05  
0.1634075      7.347889e-05   7.347889e-05  
0.1637821      7.345327e-05   7.345327e-05  
0.1641571      7.342765e-05   7.342765e-05  
0.1645324      7.340203e-05   7.340203e-05  
0.1649079      7.337643e-05   7.337643e-05  
0.1652837      7.335082e-05   7.335082e-05  
0.1656597      7.332523e-05   7.332523e-05  
0.1660361      7.329964e-05   7.329964e-05  
0.1664126      7.327406e-05   7.327406e-05  
0.1667893      7.324849e-05   7.324849e-05  
0.1671663      7.322293e-05   7.322293e-05  
0.1675435      7.319737e-05   7.319737e-05  
0.167921       7.317182e-05   7.317182e-05  
0.1682987      7.314628e-05   7.314628e-05  
0.1686766      7.312075e-05   7.312075e-05  
0.1690548      7.309523e-05   7.309523e-05  
0.1694332      7.306971e-05   7.306971e-05  
0.1698119      7.30442e-05    7.30442e-05   
0.1701908      7.30187e-05    7.30187e-05   
0.1705701      7.29932e-05    7.29932e-05   
0.1709495      7.296771e-05   7.296771e-05  
0.1713293      7.294222e-05   7.294222e-05  
0.1717092      7.291674e-05   7.291674e-05  
0.1720894      7.289128e-05   7.289128e-05  
0.1724698      7.286582e-05   7.286582e-05  
0.1728505      7.284037e-05   7.284037e-05  
0.1732315      7.281492e-05   7.281492e-05  
0.1736127      7.278948e-05   7.278948e-05  
0.173994       7.276405e-05   7.276405e-05  
0.1743757      7.273863e-05   7.273863e-05  
0.1747576      7.271322e-05   7.271322e-05  
0.1751396      7.268781e-05   7.268781e-05  
0.1755221      7.266241e-05   7.266241e-05  
0.1759046      7.263703e-05   7.263703e-05  
0.1762874      7.261165e-05   7.261165e-05  
0.1766705      7.258627e-05   7.258627e-05  
0.1770538      7.256091e-05   7.256091e-05  
0.1774373      7.253556e-05   7.253556e-05  
0.177821       7.251022e-05   7.251022e-05  
0.178205       7.248488e-05   7.248488e-05  
0.1785892      7.245955e-05   7.245955e-05  
0.1789736      7.243424e-05   7.243424e-05  
0.1793583      7.240892e-05   7.240892e-05  
0.1797432      7.238362e-05   7.238362e-05  
0.1801285      7.235832e-05   7.235832e-05  
0.1805139      7.233302e-05   7.233302e-05  
0.1808996      7.230774e-05   7.230774e-05  
0.1812856      7.228247e-05   7.228247e-05  
0.1816718      7.22572e-05    7.22572e-05   
0.1820581      7.223194e-05   7.223194e-05  
0.1824447      7.22067e-05    7.22067e-05   
0.1828314      7.218147e-05   7.218147e-05  
0.1832185      7.215624e-05   7.215624e-05  
0.1836058      7.213102e-05   7.213102e-05  
0.1839933      7.210581e-05   7.210581e-05  
0.1843809      7.208061e-05   7.208061e-05  
0.1847688      7.205543e-05   7.205543e-05  
0.185157       7.203024e-05   7.203024e-05  
0.1855454      7.200507e-05   7.200507e-05  
0.1859339      7.197991e-05   7.197991e-05  
0.1863229      7.195475e-05   7.195475e-05  
0.186712       7.19296e-05    7.19296e-05   
0.1871013      7.190446e-05   7.190446e-05  
0.1874908      7.187933e-05   7.187933e-05  
0.1878807      7.185421e-05   7.185421e-05  
0.1882708      7.182909e-05   7.182909e-05  
0.188661       7.180399e-05   7.180399e-05  
0.1890515      7.17789e-05    7.17789e-05   
0.1894423      7.17538e-05    7.17538e-05   
0.1898333      7.172872e-05   7.172872e-05  
0.1902247      7.170364e-05   7.170364e-05  
0.1906163      7.167857e-05   7.167857e-05  
0.191008       7.165351e-05   7.165351e-05  
0.1914002      7.162845e-05   7.162845e-05  
0.1917925      7.160341e-05   7.160341e-05  
0.192185       7.157837e-05   7.157837e-05  
0.1925778      7.155335e-05   7.155335e-05  
0.1929707      7.152834e-05   7.152834e-05  
0.193364       7.150332e-05   7.150332e-05  
0.1937574      7.147832e-05   7.147832e-05  
0.1941511      7.145333e-05   7.145333e-05  
0.194545       7.142835e-05   7.142835e-05  
0.1949392      7.140337e-05   7.140337e-05  
0.1953337      7.13784e-05    7.13784e-05   
0.1957283      7.135344e-05   7.135344e-05  
0.1961231      7.13285e-05    7.13285e-05   
0.1965184      7.130355e-05   7.130355e-05  
0.1969138      7.127862e-05   7.127862e-05  
0.1973094      7.125369e-05   7.125369e-05  
0.1977054      7.122877e-05   7.122877e-05  
0.1981016      7.120385e-05   7.120385e-05  
0.1984982      7.117894e-05   7.117894e-05  
0.1988949      7.115403e-05   7.115403e-05  
0.1992919      7.112914e-05   7.112914e-05  
0.1996893      7.110425e-05   7.110425e-05  
0.2000869      7.107937e-05   7.107937e-05  
0.2004846      7.105449e-05   7.105449e-05  
0.2008828      7.102962e-05   7.102962e-05  
0.2012812      7.100476e-05   7.100476e-05  
0.2016797      7.097991e-05   7.097991e-05  
0.2020785      7.095507e-05   7.095507e-05  
0.2024774      7.093024e-05   7.093024e-05  
0.2028766      7.090543e-05   7.090543e-05  
0.2032762      7.088061e-05   7.088061e-05  
0.2036759      7.08558e-05    7.08558e-05   
0.2040759      7.083101e-05   7.083101e-05  
0.2044761      7.080622e-05   7.080622e-05  
0.2048764      7.078145e-05   7.078145e-05  
0.205277       7.075668e-05   7.075668e-05  
0.2056778      7.073193e-05   7.073193e-05  
0.2060787      7.070719e-05   7.070719e-05  
0.2064801      7.068245e-05   7.068245e-05  
0.2068817      7.065772e-05   7.065772e-05  
0.2072835      7.0633e-05     7.0633e-05    