# Probe 0 (0 0 0)
# Probe 1 (0 0.011 0)
# Time         0              1             
0              0              0             
1.199999e-06   8.754396e-05   8.754396e-05  
2.639996e-06   8.754368e-05   8.754368e-05  
4.367991e-06   8.754333e-05   8.754333e-05  
6.441582e-06   8.754288e-05   8.754288e-05  
8.92989e-06    8.754235e-05   8.754235e-05  
1.191586e-05   8.75417e-05    8.75417e-05   
1.549901e-05   8.754093e-05   8.754093e-05  
1.97988e-05    8.754e-05      8.754e-05     
2.495853e-05   8.753888e-05   8.753888e-05  
3.115017e-05   8.753754e-05   8.753754e-05  
3.858013e-05   8.753594e-05   8.753594e-05  
4.749602e-05   8.753401e-05   8.753401e-05  
5.819505e-05   8.753169e-05   8.753169e-05  
7.103374e-05   8.752892e-05   8.752892e-05  
8.644002e-05   8.752559e-05   8.752559e-05  
0.0001049275   8.752159e-05   8.752159e-05  
0.0001271124   8.751679e-05   8.751679e-05  
0.0001537338   8.751104e-05   8.751104e-05  
0.0001856788   8.750413e-05   8.750413e-05  
0.0002240123   8.749584e-05   8.749584e-05  
0.0002700107   8.74859e-05    8.74859e-05   
0.0003252078   8.747398e-05   8.747398e-05  
0.0003914421   8.745967e-05   8.745967e-05  
0.0004709212   8.744251e-05   8.744251e-05  
0.0005662961   8.742193e-05   8.742193e-05  
0.0006804389   8.739731e-05   8.739731e-05  
0.0008138772   8.736854e-05   8.736854e-05  
0.0009672442   8.73355e-05    8.73355e-05   
0.001141292    8.729803e-05   8.729803e-05  
0.001336801    8.725598e-05   8.725598e-05  
0.00155466     8.720916e-05   8.720916e-05  
0.00178461     8.71598e-05    8.71598e-05   
0.002015358    8.711032e-05   8.711032e-05  
0.002246213    8.706087e-05   8.706087e-05  
0.002477068    8.701147e-05   8.701147e-05  
0.002707869    8.696214e-05   8.696214e-05  
0.00293867     8.691286e-05   8.691286e-05  
0.003169418    8.686365e-05   8.686365e-05  
0.003400219    8.681447e-05   8.681447e-05  
0.003631074    8.676534e-05   8.676534e-05  
0.003862036    8.671624e-05   8.671624e-05  
0.004093158    8.666716e-05   8.666716e-05  
0.004324388    8.66181e-05    8.66181e-05   
0.004555833    8.656906e-05   8.656906e-05  
0.004787493    8.652002e-05   8.652002e-05  
0.005019369    8.647099e-05   8.647099e-05  
0.00525157     8.642194e-05   8.642194e-05  
0.005484096    8.637287e-05   8.637287e-05  
0.005717004    8.632378e-05   8.632378e-05  
0.005950294    8.627466e-05   8.627466e-05  
0.006184023    8.622551e-05   8.622551e-05  
0.006418138    8.617632e-05   8.617632e-05  
0.006652695    8.61271e-05    8.61271e-05   
0.006887695    8.607783e-05   8.607783e-05  
0.007123141    8.602853e-05   8.602853e-05  
0.007359035    8.597918e-05   8.597918e-05  
0.007595435    8.592979e-05   8.592979e-05  
0.007832342    8.588034e-05   8.588034e-05  
0.008069759    8.583084e-05   8.583084e-05  
0.008307689    8.578129e-05   8.578129e-05  
0.008546192    8.573167e-05   8.573167e-05  
0.008785269    8.568199e-05   8.568199e-05  
0.009024924    8.563224e-05   8.563224e-05  
0.009265161    8.558243e-05   8.558243e-05  
0.009505922    8.553256e-05   8.553256e-05  
0.009747271    8.548263e-05   8.548263e-05  
0.009989209    8.543263e-05   8.543263e-05  
0.01023168     8.538258e-05   8.538258e-05  
0.01047475     8.533246e-05   8.533246e-05  
0.01071835     8.528229e-05   8.528229e-05  
0.01096256     8.523205e-05   8.523205e-05  
0.01120737     8.518174e-05   8.518174e-05  
0.01145273     8.513138e-05   8.513138e-05  
0.0116987      8.508094e-05   8.508094e-05  
0.01194522     8.503046e-05   8.503046e-05  
0.01219236     8.49799e-05    8.49799e-05   
0.01244005     8.492929e-05   8.492929e-05  
0.01268837     8.48786e-05    8.48786e-05   
0.01293725     8.482786e-05   8.482786e-05  
0.01318676     8.477705e-05   8.477705e-05  
0.0134369      8.472617e-05   8.472617e-05  
0.01368762     8.467524e-05   8.467524e-05  
0.01393891     8.462424e-05   8.462424e-05  
0.01419077     8.457319e-05   8.457319e-05  
0.01444322     8.452207e-05   8.452207e-05  
0.01469619     8.447092e-05   8.447092e-05  
0.01494968     8.441971e-05   8.441971e-05  
0.01520369     8.436846e-05   8.436846e-05  
0.01545822     8.431717e-05   8.431717e-05  
0.01571328     8.426582e-05   8.426582e-05  
0.01596888     8.421443e-05   8.421443e-05  
0.016225       8.4163e-05     8.4163e-05    
0.01648159     8.411153e-05   8.411153e-05  
0.01673872     8.406001e-05   8.406001e-05  
0.01699639     8.400845e-05   8.400845e-05  
0.01725453     8.395685e-05   8.395685e-05  
0.01751315     8.390522e-05   8.390522e-05  
0.01777231     8.385354e-05   8.385354e-05  
0.01803195     8.380183e-05   8.380183e-05  
0.01829208     8.375008e-05   8.375008e-05  
0.01855269     8.36983e-05    8.36983e-05   
0.01881385     8.364647e-05   8.364647e-05  
0.0190755      8.35946e-05    8.35946e-05   
0.01933764     8.35427e-05    8.35427e-05   
0.0196002      8.349078e-05   8.349078e-05  
0.01986325     8.343883e-05   8.343883e-05  
0.0201268      8.338683e-05   8.338683e-05  
0.02039077     8.333482e-05   8.333482e-05  
0.02065525     8.328277e-05   8.328277e-05  
0.02092015     8.32307e-05    8.32307e-05   
0.02118548     8.317861e-05   8.317861e-05  
0.02145125     8.312649e-05   8.312649e-05  
0.02171745     8.307436e-05   8.307436e-05  
0.02198408     8.30222e-05    8.30222e-05   
0.02225123     8.297e-05      8.297e-05     
0.02251881     8.291779e-05   8.291779e-05  
0.02278676     8.286556e-05   8.286556e-05  
0.02305515     8.281331e-05   8.281331e-05  
0.02332399     8.276104e-05   8.276104e-05  
0.02359326     8.270875e-05   8.270875e-05  
0.02386299     8.265644e-05   8.265644e-05  
0.02413309     8.260411e-05   8.260411e-05  
0.02440364     8.255177e-05   8.255177e-05  
0.02467456     8.249941e-05   8.249941e-05  
0.02494594     8.244703e-05   8.244703e-05  
0.02521769     8.239465e-05   8.239465e-05  
0.02548982     8.234225e-05   8.234225e-05  
0.02576241     8.228983e-05   8.228983e-05  
0.02603539     8.223741e-05   8.223741e-05  
0.02630874     8.218497e-05   8.218497e-05  
0.02658256     8.213251e-05   8.213251e-05  
0.02685676     8.208004e-05   8.208004e-05  
0.02713135     8.202757e-05   8.202757e-05  
0.02740633     8.197508e-05   8.197508e-05  
0.02768161     8.19226e-05    8.19226e-05   
0.02795729     8.187011e-05   8.187011e-05  
0.02823336     8.181761e-05   8.181761e-05  
0.02850975     8.176512e-05   8.176512e-05  
0.02878653     8.171262e-05   8.171262e-05  
0.0290637      8.166011e-05   8.166011e-05  
0.02934119     8.16076e-05    8.16076e-05   
0.029619       8.15551e-05    8.15551e-05   
0.0298972      8.150259e-05   8.150259e-05  
0.03017573     8.145009e-05   8.145009e-05  
0.03045457     8.139759e-05   8.139759e-05  
0.03073382     8.134508e-05   8.134508e-05  
0.03101339     8.129258e-05   8.129258e-05  
0.03129328     8.124008e-05   8.124008e-05  
0.0315735      8.118759e-05   8.118759e-05  
0.03185412     8.113509e-05   8.113509e-05  
0.03213507     8.108259e-05   8.108259e-05  
0.03241634     8.10301e-05    8.10301e-05   
0.03269794     8.097762e-05   8.097762e-05  
0.03297987     8.092514e-05   8.092514e-05  
0.03326213     8.087266e-05   8.087266e-05  
0.03354472     8.082019e-05   8.082019e-05  
0.03382764     8.076772e-05   8.076772e-05  
0.03411098     8.071525e-05   8.071525e-05  
0.03439464     8.066278e-05   8.066278e-05  
0.03467864     8.061031e-05   8.061031e-05  
0.03496298     8.055785e-05   8.055785e-05  
0.03524765     8.05054e-05    8.05054e-05   
0.03553266     8.045294e-05   8.045294e-05  
0.03581801     8.04005e-05    8.04005e-05   
0.0361036      8.034807e-05   8.034807e-05  
0.03638954     8.029565e-05   8.029565e-05  
0.03667582     8.024323e-05   8.024323e-05  
0.03696244     8.019082e-05   8.019082e-05  
0.0372494      8.013841e-05   8.013841e-05  
0.03753662     8.008603e-05   8.008603e-05  
0.03782418     8.003364e-05   8.003364e-05  
0.03811199     7.998128e-05   7.998128e-05  
0.03840016     7.992892e-05   7.992892e-05  
0.03868867     7.987657e-05   7.987657e-05  
0.03897743     7.982424e-05   7.982424e-05  
0.03926655     7.977191e-05   7.977191e-05  
0.03955593     7.97196e-05    7.97196e-05   
0.03984565     7.966729e-05   7.966729e-05  
0.04013564     7.961501e-05   7.961501e-05  
0.04042598     7.956273e-05   7.956273e-05  
0.04071668     7.951045e-05   7.951045e-05  
0.04100763     7.945819e-05   7.945819e-05  
0.04129894     7.940594e-05   7.940594e-05  
0.04159052     7.935371e-05   7.935371e-05  
0.04188236     7.93015e-05    7.93015e-05   
0.04217456     7.924929e-05   7.924929e-05  
0.04246702     7.91971e-05    7.91971e-05   
0.04275985     7.914491e-05   7.914491e-05  
0.04305294     7.909275e-05   7.909275e-05  
0.0433463      7.90406e-05    7.90406e-05   
0.04363993     7.898848e-05   7.898848e-05  
0.04393393     7.893636e-05   7.893636e-05  
0.04422819     7.888425e-05   7.888425e-05  
0.04452273     7.883217e-05   7.883217e-05  
0.04481754     7.878011e-05   7.878011e-05  
0.04511262     7.872806e-05   7.872806e-05  
0.04540798     7.867604e-05   7.867604e-05  
0.04570361     7.862403e-05   7.862403e-05  
0.04599942     7.857206e-05   7.857206e-05  
0.04629551     7.852011e-05   7.852011e-05  
0.04659188     7.846818e-05   7.846818e-05  
0.04688852     7.841627e-05   7.841627e-05  
0.04718544     7.836438e-05   7.836438e-05  
0.04748254     7.831253e-05   7.831253e-05  
0.04777993     7.826069e-05   7.826069e-05  
0.04807759     7.820887e-05   7.820887e-05  
0.04837553     7.815707e-05   7.815707e-05  
0.04867375     7.810529e-05   7.810529e-05  
0.04897216     7.805355e-05   7.805355e-05  
0.04927085     7.800183e-05   7.800183e-05  
0.04956982     7.795012e-05   7.795012e-05  
0.04986907     7.789844e-05   7.789844e-05  
0.05016852     7.784678e-05   7.784678e-05  
0.05046824     7.779515e-05   7.779515e-05  
0.05076825     7.774354e-05   7.774354e-05  
0.05106845     7.769196e-05   7.769196e-05  
0.05136894     7.76404e-05    7.76404e-05   
0.05166971     7.758887e-05   7.758887e-05  
0.05197067     7.753736e-05   7.753736e-05  
0.05227192     7.748588e-05   7.748588e-05  
0.05257336     7.743442e-05   7.743442e-05  
0.05287509     7.738299e-05   7.738299e-05  
0.05317701     7.73316e-05    7.73316e-05   
0.05347922     7.728022e-05   7.728022e-05  
0.05378162     7.722887e-05   7.722887e-05  
0.05408431     7.717755e-05   7.717755e-05  
0.0543872      7.712626e-05   7.712626e-05  
0.05469038     7.707499e-05   7.707499e-05  
0.05499375     7.702375e-05   7.702375e-05  
0.05529732     7.697255e-05   7.697255e-05  
0.05560118     7.692137e-05   7.692137e-05  
0.05590524     7.687022e-05   7.687022e-05  
0.05620949     7.681911e-05   7.681911e-05  
0.05651404     7.676801e-05   7.676801e-05  
0.05681878     7.671695e-05   7.671695e-05  
0.05712372     7.666592e-05   7.666592e-05  
0.05742886     7.661493e-05   7.661493e-05  
0.05773419     7.656397e-05   7.656397e-05  
0.05803973     7.651305e-05   7.651305e-05  
0.05834546     7.646216e-05   7.646216e-05  
0.05865139     7.641131e-05   7.641131e-05  
0.05895752     7.636049e-05   7.636049e-05  
0.05926385     7.630971e-05   7.630971e-05  
0.05957038     7.625896e-05   7.625896e-05  
0.0598771      7.620824e-05   7.620824e-05  
0.06018403     7.615756e-05   7.615756e-05  
0.06049106     7.610693e-05   7.610693e-05  
0.06079829     7.605633e-05   7.605633e-05  
0.06110572     7.600577e-05   7.600577e-05  
0.06141336     7.595524e-05   7.595524e-05  
0.06172119     7.590475e-05   7.590475e-05  
0.06202923     7.585428e-05   7.585428e-05  
0.06233747     7.580386e-05   7.580386e-05  
0.06264581     7.575348e-05   7.575348e-05  
0.06295435     7.570314e-05   7.570314e-05  
0.0632631      7.565283e-05   7.565283e-05  
0.06357205     7.560256e-05   7.560256e-05  
0.0638811      7.555233e-05   7.555233e-05  
0.06419035     7.550214e-05   7.550214e-05  
0.06449981     7.545199e-05   7.545199e-05  
0.06480948     7.540186e-05   7.540186e-05  
0.06511935     7.535177e-05   7.535177e-05  
0.06542933     7.530173e-05   7.530173e-05  
0.0657395      7.525173e-05   7.525173e-05  
0.06604989     7.520176e-05   7.520176e-05  
0.06636048     7.515182e-05   7.515182e-05  
0.06667128     7.510191e-05   7.510191e-05  
0.06698218     7.505206e-05   7.505206e-05  
0.06729329     7.500223e-05   7.500223e-05  
0.06760461     7.495244e-05   7.495244e-05  
0.06791603     7.49027e-05    7.49027e-05   
0.06822766     7.4853e-05     7.4853e-05    
0.0685395      7.480332e-05   7.480332e-05  
0.06885155     7.475368e-05   7.475368e-05  
0.0691638      7.470408e-05   7.470408e-05  
0.06947616     7.465452e-05   7.465452e-05  
0.06978873     7.460499e-05   7.460499e-05  
0.07010152     7.45555e-05    7.45555e-05   
0.07041451     7.450604e-05   7.450604e-05  
0.07072771     7.445662e-05   7.445662e-05  
0.07104112     7.440722e-05   7.440722e-05  
0.07135475     7.435786e-05   7.435786e-05  
0.07166859     7.430853e-05   7.430853e-05  
0.07198264     7.425924e-05   7.425924e-05  
0.0722969      7.420997e-05   7.420997e-05  
0.07261138     7.416074e-05   7.416074e-05  
0.07292606     7.411154e-05   7.411154e-05  
0.07324097     7.406238e-05   7.406238e-05  
0.07355608     7.401325e-05   7.401325e-05  
0.07387142     7.396414e-05   7.396414e-05  
0.07418685     7.391509e-05   7.391509e-05  
0.07450251     7.386607e-05   7.386607e-05  
0.07481838     7.381709e-05   7.381709e-05  
0.07513446     7.376813e-05   7.376813e-05  
0.07545076     7.371921e-05   7.371921e-05  
0.07576728     7.367032e-05   7.367032e-05  
0.07608402     7.362146e-05   7.362146e-05  
0.07640097     7.357264e-05   7.357264e-05  
0.07671814     7.352384e-05   7.352384e-05  
0.07703553     7.347508e-05   7.347508e-05  
0.07735313     7.342635e-05   7.342635e-05  
0.07767085     7.337767e-05   7.337767e-05  
0.07798879     7.332902e-05   7.332902e-05  
0.07830694     7.32804e-05    7.32804e-05   
0.07862531     7.323182e-05   7.323182e-05  
0.07894391     7.318326e-05   7.318326e-05  
0.07926261     7.313476e-05   7.313476e-05  
0.07958154     7.308628e-05   7.308628e-05  
0.07990068     7.303784e-05   7.303784e-05  
0.08022005     7.298943e-05   7.298943e-05  
0.08053964     7.294105e-05   7.294105e-05  
0.08085945     7.28927e-05    7.28927e-05   
0.08117949     7.284439e-05   7.284439e-05  
0.08149975     7.27961e-05    7.27961e-05   
0.08182023     7.274785e-05   7.274785e-05  
0.08214093     7.269962e-05   7.269962e-05  
0.08246186     7.265143e-05   7.265143e-05  
0.08278302     7.260327e-05   7.260327e-05  
0.0831044      7.255514e-05   7.255514e-05  
0.08342589     7.250706e-05   7.250706e-05  
0.08374761     7.245901e-05   7.245901e-05  
0.08406955     7.241099e-05   7.241099e-05  
0.08439172     7.236301e-05   7.236301e-05  
0.08471412     7.231505e-05   7.231505e-05  
0.08503674     7.226713e-05   7.226713e-05  
0.0853596      7.221923e-05   7.221923e-05  
0.08568268     7.217137e-05   7.217137e-05  
0.08600599     7.212353e-05   7.212353e-05  
0.08632952     7.207573e-05   7.207573e-05  
0.08665329     7.202796e-05   7.202796e-05  
0.08697729     7.198022e-05   7.198022e-05  
0.08730151     7.193251e-05   7.193251e-05  
0.08762586     7.188485e-05   7.188485e-05  
0.08795043     7.183722e-05   7.183722e-05  
0.08827523     7.178962e-05   7.178962e-05  
0.08860027     7.174205e-05   7.174205e-05  
0.08892554     7.169451e-05   7.169451e-05  
0.08925104     7.1647e-05     7.1647e-05    
0.08957677     7.159952e-05   7.159952e-05  
0.08990274     7.155207e-05   7.155207e-05  
0.09022882     7.150467e-05   7.150467e-05  
0.09055513     7.145729e-05   7.145729e-05  
0.09088169     7.140995e-05   7.140995e-05  
0.09120847     7.136264e-05   7.136264e-05  
0.09153549     7.131536e-05   7.131536e-05  
0.09186275     7.126811e-05   7.126811e-05  
0.09219024     7.122089e-05   7.122089e-05  
0.09251785     7.117371e-05   7.117371e-05  
0.0928457      7.112657e-05   7.112657e-05  
0.09317379     7.107945e-05   7.107945e-05  
0.09350211     7.103237e-05   7.103237e-05  
0.09383067     7.098531e-05   7.098531e-05  
0.09415947     7.093829e-05   7.093829e-05  
0.0944885      7.089129e-05   7.089129e-05  
0.09481778     7.084433e-05   7.084433e-05  
0.09514718     7.079741e-05   7.079741e-05  
0.09547681     7.075052e-05   7.075052e-05  
0.09580669     7.070366e-05   7.070366e-05  
0.09613681     7.065683e-05   7.065683e-05  
0.09646717     7.061003e-05   7.061003e-05  
0.09679777     7.056326e-05   7.056326e-05  
0.09712861     7.051652e-05   7.051652e-05  
0.09745958     7.046982e-05   7.046982e-05  
0.09779079     7.042316e-05   7.042316e-05  
0.09812224     7.037652e-05   7.037652e-05  
0.09845393     7.032991e-05   7.032991e-05  
0.09878587     7.028334e-05   7.028334e-05  
0.09911793     7.023681e-05   7.023681e-05  
0.09945024     7.01903e-05    7.01903e-05   
0.09978279     7.014383e-05   7.014383e-05  
0.1001156      7.009739e-05   7.009739e-05  
0.1004485      7.005099e-05   7.005099e-05  
0.1007817      7.000462e-05   7.000462e-05  
0.1011151      6.995828e-05   6.995828e-05  
0.1014488      6.991197e-05   6.991197e-05  
0.1017827      6.986569e-05   6.986569e-05  
0.1021167      6.981945e-05   6.981945e-05  
0.102451       6.977324e-05   6.977324e-05  
0.1027855      6.972706e-05   6.972706e-05  
0.1031203      6.968091e-05   6.968091e-05  
0.1034553      6.963479e-05   6.963479e-05  
0.1037905      6.958871e-05   6.958871e-05  
0.1041259      6.954267e-05   6.954267e-05  
0.1044615      6.949665e-05   6.949665e-05  
0.1047975      6.945065e-05   6.945065e-05  
0.1051336      6.940469e-05   6.940469e-05  
0.10547        6.935876e-05   6.935876e-05  
0.1058067      6.931285e-05   6.931285e-05  
0.1061436      6.926697e-05   6.926697e-05  
0.1064808      6.922112e-05   6.922112e-05  
0.1068182      6.91753e-05    6.91753e-05   
0.1071558      6.912952e-05   6.912952e-05  
0.1074936      6.908378e-05   6.908378e-05  
0.1078317      6.903806e-05   6.903806e-05  
0.10817        6.899236e-05   6.899236e-05  
0.1085086      6.89467e-05    6.89467e-05   
0.1088474      6.890106e-05   6.890106e-05  
0.1091865      6.885545e-05   6.885545e-05  
0.1095258      6.880989e-05   6.880989e-05  
0.1098652      6.876436e-05   6.876436e-05  
0.110205       6.871885e-05   6.871885e-05  
0.110545       6.867337e-05   6.867337e-05  
0.1108853      6.862792e-05   6.862792e-05  
0.1112257      6.858251e-05   6.858251e-05  
0.1115663      6.853713e-05   6.853713e-05  
0.1119072      6.849178e-05   6.849178e-05  
0.1122483      6.844647e-05   6.844647e-05  
0.1125896      6.840119e-05   6.840119e-05  
0.1129312      6.835594e-05   6.835594e-05  
0.113273       6.831071e-05   6.831071e-05  
0.113615       6.826553e-05   6.826553e-05  
0.1139572      6.822038e-05   6.822038e-05  
0.1142997      6.817525e-05   6.817525e-05  
0.1146425      6.813015e-05   6.813015e-05  
0.1149855      6.808508e-05   6.808508e-05  
0.1153288      6.804004e-05   6.804004e-05  
0.1156724      6.799502e-05   6.799502e-05  
0.1160161      6.795004e-05   6.795004e-05  
0.11636        6.79051e-05    6.79051e-05   
0.1167042      6.786018e-05   6.786018e-05  
0.1170487      6.781529e-05   6.781529e-05  
0.1173935      6.777042e-05   6.777042e-05  
0.1177384      6.77256e-05    6.77256e-05   
0.1180836      6.768081e-05   6.768081e-05  
0.118429       6.763604e-05   6.763604e-05  
0.1187747      6.75913e-05    6.75913e-05   
0.1191206      6.75466e-05    6.75466e-05   
0.1194667      6.750193e-05   6.750193e-05  
0.1198131      6.745729e-05   6.745729e-05  
0.1201598      6.741267e-05   6.741267e-05  
0.1205067      6.736808e-05   6.736808e-05  
0.1208538      6.732353e-05   6.732353e-05  
0.1212011      6.727901e-05   6.727901e-05  
0.1215488      6.723451e-05   6.723451e-05  
0.1218965      6.719006e-05   6.719006e-05  
0.1222446      6.714564e-05   6.714564e-05  
0.1225929      6.710124e-05   6.710124e-05  
0.1229413      6.705688e-05   6.705688e-05  
0.1232901      6.701255e-05   6.701255e-05  
0.1236391      6.696825e-05   6.696825e-05  
0.1239884      6.692397e-05   6.692397e-05  
0.1243378      6.687974e-05   6.687974e-05  
0.1246875      6.683553e-05   6.683553e-05  
0.1250375      6.679135e-05   6.679135e-05  
0.1253878      6.674719e-05   6.674719e-05  
0.1257382      6.670308e-05   6.670308e-05  
0.1260888      6.665899e-05   6.665899e-05  
0.1264397      6.661494e-05   6.661494e-05  
0.1267908      6.657092e-05   6.657092e-05  
0.1271422      6.652693e-05   6.652693e-05  
0.1274937      6.648298e-05   6.648298e-05  
0.1278455      6.643905e-05   6.643905e-05  
0.1281975      6.639517e-05   6.639517e-05  
0.1285497      6.635132e-05   6.635132e-05  
0.1289023      6.630748e-05   6.630748e-05  
0.1292549      6.62637e-05    6.62637e-05   
0.1296079      6.621993e-05   6.621993e-05  
0.129961       6.617621e-05   6.617621e-05  
0.1303144      6.613252e-05   6.613252e-05  
0.130668       6.608885e-05   6.608885e-05  
0.1310219      6.604522e-05   6.604522e-05  
0.131376       6.600162e-05   6.600162e-05  
0.1317302      6.595806e-05   6.595806e-05  
0.1320848      6.591452e-05   6.591452e-05  
0.1324395      6.587103e-05   6.587103e-05  
0.1327944      6.582756e-05   6.582756e-05  
0.1331495      6.578414e-05   6.578414e-05  
0.133505       6.574074e-05   6.574074e-05  
0.1338607      6.569736e-05   6.569736e-05  
0.1342165      6.565403e-05   6.565403e-05  
0.1345727      6.561072e-05   6.561072e-05  
0.1349289      6.556745e-05   6.556745e-05  
0.1352855      6.552421e-05   6.552421e-05  
0.1356424      6.548099e-05   6.548099e-05  
0.1359994      6.543782e-05   6.543782e-05  
0.1363568      6.539467e-05   6.539467e-05  
0.1367142      6.535156e-05   6.535156e-05  
0.1370718      6.530849e-05   6.530849e-05  
0.1374298      6.526545e-05   6.526545e-05  
0.1377878      6.522244e-05   6.522244e-05  
0.1381462      6.517947e-05   6.517947e-05  
0.1385047      6.513653e-05   6.513653e-05  
0.1388633      6.509364e-05   6.509364e-05  
0.1392223      6.505077e-05   6.505077e-05  
0.1395814      6.500794e-05   6.500794e-05  
0.1399407      6.496515e-05   6.496515e-05  
0.1403002      6.492239e-05   6.492239e-05  
0.1406599      6.487966e-05   6.487966e-05  
0.1410199      6.483697e-05   6.483697e-05  
0.1413801      6.479431e-05   6.479431e-05  
0.1417404      6.475169e-05   6.475169e-05  
0.142101       6.47091e-05    6.47091e-05   
0.1424618      6.466655e-05   6.466655e-05  
0.1428228      6.462402e-05   6.462402e-05  
0.1431841      6.458153e-05   6.458153e-05  
0.1435454      6.453909e-05   6.453909e-05  
0.1439071      6.449667e-05   6.449667e-05  
0.1442689      6.445428e-05   6.445428e-05  
0.1446311      6.441193e-05   6.441193e-05  
0.1449934      6.436961e-05   6.436961e-05  
0.1453558      6.432733e-05   6.432733e-05  
0.1457186      6.428508e-05   6.428508e-05  
0.1460815      6.424286e-05   6.424286e-05  
0.1464447      6.420067e-05   6.420067e-05  
0.1468081      6.415852e-05   6.415852e-05  
0.1471716      6.411641e-05   6.411641e-05  
0.1475354      6.407433e-05   6.407433e-05  
0.1478994      6.403228e-05   6.403228e-05  
0.1482637      6.399026e-05   6.399026e-05  
0.1486282      6.394828e-05   6.394828e-05  
0.1489928      6.390633e-05   6.390633e-05  
0.1493577      6.386441e-05   6.386441e-05  
0.1497228      6.382254e-05   6.382254e-05  
0.1500882      6.378068e-05   6.378068e-05  
0.1504537      6.373886e-05   6.373886e-05  
0.1508196      6.369707e-05   6.369707e-05  
0.1511858      6.365529e-05   6.365529e-05  
0.1515521      6.361356e-05   6.361356e-05  
0.1519188      6.357185e-05   6.357185e-05  
0.1522856      6.353018e-05   6.353018e-05  
0.1526527      6.348853e-05   6.348853e-05  
0.15302        6.344692e-05   6.344692e-05  
0.1533877      6.340534e-05   6.340534e-05  
0.1537554      6.336379e-05   6.336379e-05  
0.1541235      6.332226e-05   6.332226e-05  
0.1544918      6.328078e-05   6.328078e-05  
0.1548603      6.323931e-05   6.323931e-05  
0.1552292      6.319787e-05   6.319787e-05  
0.1555983      6.315646e-05   6.315646e-05  
0.1559677      6.311508e-05   6.311508e-05  
0.1563372      6.307374e-05   6.307374e-05  
0.1567071      6.303242e-05   6.303242e-05  
0.1570773      6.299112e-05   6.299112e-05  
0.1574476      6.294986e-05   6.294986e-05  
0.1578183      6.290862e-05   6.290862e-05  
0.1581891      6.286742e-05   6.286742e-05  
0.1585603      6.282624e-05   6.282624e-05  
0.1589317      6.27851e-05    6.27851e-05   
0.1593033      6.274398e-05   6.274398e-05  
0.1596751      6.27029e-05    6.27029e-05   
0.1600473      6.266184e-05   6.266184e-05  
0.1604196      6.262083e-05   6.262083e-05  
0.1607921      6.257984e-05   6.257984e-05  
0.1611649      6.253888e-05   6.253888e-05  
0.1615381      6.249795e-05   6.249795e-05  
0.1619114      6.245705e-05   6.245705e-05  
0.162285       6.241617e-05   6.241617e-05  
0.1626588      6.237533e-05   6.237533e-05  
0.163033       6.233451e-05   6.233451e-05  
0.1634075      6.229371e-05   6.229371e-05  
0.1637821      6.225294e-05   6.225294e-05  
0.1641571      6.22122e-05    6.22122e-05   
0.1645324      6.217148e-05   6.217148e-05  
0.1649079      6.21308e-05    6.21308e-05   
0.1652837      6.209014e-05   6.209014e-05  
0.1656597      6.204952e-05   6.204952e-05  
0.1660361      6.200892e-05   6.200892e-05  
0.1664126      6.196835e-05   6.196835e-05  
0.1667893      6.192783e-05   6.192783e-05  
0.1671663      6.188732e-05   6.188732e-05  
0.1675435      6.184686e-05   6.184686e-05  
0.167921       6.180641e-05   6.180641e-05  
0.1682987      6.1766e-05     6.1766e-05    
0.1686766      6.172563e-05   6.172563e-05  
0.1690548      6.168528e-05   6.168528e-05  
0.1694332      6.164497e-05   6.164497e-05  
0.1698119      6.160467e-05   6.160467e-05  
0.1701908      6.156442e-05   6.156442e-05  
0.1705701      6.152418e-05   6.152418e-05  
0.1709495      6.148398e-05   6.148398e-05  
0.1713293      6.14438e-05    6.14438e-05   
0.1717092      6.140366e-05   6.140366e-05  
0.1720894      6.136356e-05   6.136356e-05  
0.1724698      6.132347e-05   6.132347e-05  
0.1728505      6.128343e-05   6.128343e-05  
0.1732315      6.12434e-05    6.12434e-05   
0.1736127      6.120341e-05   6.120341e-05  
0.173994       6.116346e-05   6.116346e-05  
0.1743757      6.112352e-05   6.112352e-05  
0.1747576      6.108363e-05   6.108363e-05  
0.1751396      6.104377e-05   6.104377e-05  
0.1755221      6.100393e-05   6.100393e-05  
0.1759046      6.096412e-05   6.096412e-05  
0.1762874      6.092436e-05   6.092436e-05  
0.1766705      6.088461e-05   6.088461e-05  
0.1770538      6.08449e-05    6.08449e-05   
0.1774373      6.080523e-05   6.080523e-05  
0.177821       6.076559e-05   6.076559e-05  
0.178205       6.072597e-05   6.072597e-05  
0.1785892      6.068639e-05   6.068639e-05  
0.1789736      6.064685e-05   6.064685e-05  
0.1793583      6.060732e-05   6.060732e-05  
0.1797432      6.056783e-05   6.056783e-05  
0.1801285      6.052836e-05   6.052836e-05  
0.1805139      6.048893e-05   6.048893e-05  
0.1808996      6.044953e-05   6.044953e-05  
0.1812856      6.041016e-05   6.041016e-05  
0.1816718      6.037081e-05   6.037081e-05  
0.1820581      6.033151e-05   6.033151e-05  
0.1824447      6.029224e-05   6.029224e-05  
0.1828314      6.025301e-05   6.025301e-05  
0.1832185      6.021379e-05   6.021379e-05  
0.1836058      6.017462e-05   6.017462e-05  
0.1839933      6.013548e-05   6.013548e-05  
0.1843809      6.009637e-05   6.009637e-05  
0.1847688      6.00573e-05    6.00573e-05   
0.185157       6.001825e-05   6.001825e-05  
0.1855454      5.997923e-05   5.997923e-05  
0.1859339      5.994025e-05   5.994025e-05  
0.1863229      5.990129e-05   5.990129e-05  
0.186712       5.986236e-05   5.986236e-05  
0.1871013      5.982347e-05   5.982347e-05  
0.1874908      5.978462e-05   5.978462e-05  
0.1878807      5.974578e-05   5.974578e-05  
0.1882708      5.970697e-05   5.970697e-05  
0.188661       5.966821e-05   5.966821e-05  
0.1890515      5.962947e-05   5.962947e-05  
0.1894423      5.959076e-05   5.959076e-05  
0.1898333      5.955208e-05   5.955208e-05  
0.1902247      5.951341e-05   5.951341e-05  
0.1906163      5.947479e-05   5.947479e-05  
0.191008       5.943619e-05   5.943619e-05  
0.1914002      5.939762e-05   5.939762e-05  
0.1917925      5.935908e-05   5.935908e-05  
0.192185       5.932057e-05   5.932057e-05  
0.1925778      5.92821e-05    5.92821e-05   
0.1929707      5.924367e-05   5.924367e-05  
0.193364       5.920525e-05   5.920525e-05  
0.1937574      5.916686e-05   5.916686e-05  
0.1941511      5.912851e-05   5.912851e-05  
0.194545       5.90902e-05    5.90902e-05   
0.1949392      5.90519e-05    5.90519e-05   
0.1953337      5.901364e-05   5.901364e-05  
0.1957283      5.897541e-05   5.897541e-05  
0.1961231      5.893722e-05   5.893722e-05  
0.1965184      5.889904e-05   5.889904e-05  
0.1969138      5.88609e-05    5.88609e-05   
0.1973094      5.882279e-05   5.882279e-05  
0.1977054      5.87847e-05    5.87847e-05   
0.1981016      5.874664e-05   5.874664e-05  
0.1984982      5.87086e-05    5.87086e-05   
0.1988949      5.867059e-05   5.867059e-05  
0.1992919      5.863262e-05   5.863262e-05  
0.1996893      5.859466e-05   5.859466e-05  
0.2000869      5.855674e-05   5.855674e-05  
0.2004846      5.851885e-05   5.851885e-05  
0.2008828      5.848097e-05   5.848097e-05  
0.2012812      5.844313e-05   5.844313e-05  
0.2016797      5.840533e-05   5.840533e-05  
0.2020785      5.836755e-05   5.836755e-05  
0.2024774      5.832982e-05   5.832982e-05  
0.2028766      5.829211e-05   5.829211e-05  
0.2032762      5.825442e-05   5.825442e-05  
0.2036759      5.821677e-05   5.821677e-05  
0.2040759      5.817914e-05   5.817914e-05  
0.2044761      5.814155e-05   5.814155e-05  
0.2048764      5.8104e-05     5.8104e-05    
0.205277       5.806648e-05   5.806648e-05  
0.2056778      5.802899e-05   5.802899e-05  
0.2060787      5.799154e-05   5.799154e-05  
0.2064801      5.79541e-05    5.79541e-05   
0.2068817      5.791669e-05   5.791669e-05  
0.2072835      5.787932e-05   5.787932e-05  