# Probe 0 (0 0 0)
# Probe 1 (0 0.011 0)
# Time         0              1             
0              0              0             
1.199999e-06   0              0             
2.639997e-06   0              0             
4.367992e-06   0              0             
6.441588e-06   0              0             
8.929898e-06   0              0             
1.191586e-05   0              0             
1.549901e-05   0              0             
1.979876e-05   0              0             
2.495847e-05   0              0             
3.115011e-05   0              0             
3.858006e-05   0              0             
4.7496e-05     0              0             
5.819498e-05   0              0             
7.103375e-05   0              0             
8.643988e-05   0              0             
0.0001049271   0              0             
0.0001271112   0              0             
0.0001537313   0              0             
0.0001856744   0              0             
0.0002240038   0              0             
0.0002699982   0              7.213358e-322 
0.0003251865   0              9.138013e-316 
0.0003914125   0              1.231276e-309 
0.0004698809   0              1.043565e-303 
0.0005610194   0              3.199779e-298 
0.0006652647   0              3.527947e-293 
0.0007830879   0              1.656537e-288 
0.0009149814   0              3.828191e-284 
0.001061041    0              4.389475e-280 
0.001212372    0              4.24953e-277  
0.001368634    0              1.534045e-274 
0.001529483    0              2.582037e-272 
0.001694212    0              2.560078e-270 
0.001861766    0              1.62201e-268  
0.002032011    0              7.607404e-267 
0.002204857    0              2.836993e-265 
0.002380199    0              8.760995e-264 
0.002558047    0              2.322587e-262 
0.00273828     0              5.373707e-261 
0.002920895    0              1.10722e-259  
0.003105958    0              2.07198e-258  
0.003293678    0              3.604441e-257 
0.003484059    0              5.886264e-256 
0.003675617    0              8.582153e-255 
0.003868065    0              1.12807e-253  
0.004061413    0              1.357668e-252 
0.004255671    0              1.512238e-251 
0.004450769    0              1.566568e-250 
0.004646715    0              1.517588e-249 
0.004843518    0              1.381426e-248 
0.005041107    0              1.184464e-247 
0.005239408    0              9.58868e-247  
0.005438506    0              7.369688e-246 
0.005638329    0              5.387097e-245 
0.0058388      0              3.751627e-244 
0.006040006    0              2.500483e-243 
0.00624187     0              1.597483e-242 
0.006444312    0              9.797224e-242 
0.006647422    0              5.789865e-241 
0.006851118    0              3.300454e-240 
0.007055405    0              1.818824e-239 
0.007260287    0              9.711523e-239 
0.00746568     0              5.029794e-238 
0.007671675    0              2.535382e-237 
0.007878189    0              1.244988e-236 
0.008085311    0              5.974878e-236 
0.008292958    0              2.804842e-235 
0.00850122     0              1.290808e-234 
0.008710013    0              5.821263e-234 
0.00891934     0              2.574027e-233 
0.009129113    0              1.115327e-232 
0.009339336    0              4.736704e-232 
0.009550011    0              1.971905e-231 
0.009761139    0              8.046805e-231 
0.009972722    0              3.21881e-230  
0.01018467     0              1.261386e-229 
0.01039708     0              4.849213e-229 
0.01060986     0              1.828199e-228 
0.0108231      0              6.76681e-228  
0.01103672     0              2.45755e-227  
0.0112507      4.940656e-324  8.761956e-227 
0.01146507     4.446591e-323  3.06857e-226  
0.01167971     2.717361e-322  1.055593e-225 
0.01189474     1.492078e-321  3.572322e-225 
0.01211005     7.539442e-321  1.189449e-224 
0.01232574     4.315169e-320  3.903059e-224 
0.01254171     2.685494e-319  1.262367e-223 
0.01275798     1.223005e-318  4.027489e-223 
0.01297453     5.523713e-318  1.268466e-222 
0.01319147     3.598802e-317  3.949052e-222 
0.01340869     1.456024e-316  1.215064e-221 
0.01362621     7.149944e-316  3.69628e-221  
0.01384403     3.252941e-315  1.112e-220    
0.01406213     1.418343e-314  3.309311e-220 
0.01428053     6.066334e-314  9.746196e-220 
0.01449913     3.144455e-313  2.839758e-219 
0.01471802     1.254224e-312  8.192502e-219 
0.0149372      5.085831e-312  2.340208e-218 
0.01515669     2.053848e-311  6.619492e-218 
0.01537637     8.204156e-311  1.853333e-217 
0.01559636     3.233551e-310  5.140456e-217 
0.01581664     1.259209e-309  1.412735e-216 
0.01603713     4.840318e-309  3.84558e-216  
0.01625791     1.838783e-308  1.037875e-215 
0.016479       6.9052e-308    2.778284e-215 
0.01670029     2.561783e-307  7.375796e-215 
0.01692179     9.392063e-307  1.942823e-214 
0.01714358     3.406407e-306  5.081739e-214 
0.01736559     1.221492e-305  1.319427e-213 
0.01758779     4.331765e-305  3.401625e-213 
0.01781031     1.520843e-304  8.714838e-213 
0.01803303     5.283171e-304  2.218087e-212 
0.01825596     1.816423e-303  5.610367e-212 
0.01847909     6.182255e-303  1.410481e-211 
0.01870253     2.085214e-302  3.526503e-211 
0.01892618     6.966393e-302  8.763874e-211 
0.01915004     2.305748e-301  2.164667e-210 
0.01937411     7.562084e-301  5.313574e-210 
0.01959839     2.457834e-300  1.296013e-209 
0.01982288     7.917861e-300  3.140098e-209 
0.02004757     2.52868e-299   7.555986e-209 
0.02027248     8.007705e-299  1.805497e-208 
0.0204976      2.515146e-298  4.283575e-208 
0.02072293     7.837207e-298  1.008983e-207 
0.02094847     2.423085e-297  2.359249e-207 
0.02117423     7.433763e-297  5.475058e-207 
0.02140019     2.263234e-296  1.260817e-206 
0.02162637     6.838541e-296  2.880762e-206 
0.02185277     2.050971e-295  6.530176e-206 
0.02207927     6.102097e-295  1.467836e-205 
0.02230599     1.802524e-294  3.273099e-205 
0.02253292     5.28704e-294   7.24046e-205  
0.02276007     1.540046e-293  1.588926e-204 
0.02298733     4.452749e-293  3.457911e-204 
0.0232148      1.278916e-292  7.466584e-204 
0.02344249     3.649248e-292  3.929874e-202 
0.02367029     1.033914e-291  8.467363e-202 
0.02389831     2.910825e-291  1.810614e-201 
0.02412655     8.144497e-291  3.842805e-201 
0.0243549      2.263667e-290  8.092774e-201 
0.02458346     6.254129e-290  1.692049e-200 
0.02481214     1.716719e-289  3.511263e-200 
0.02504103     4.685415e-289  7.23543e-200  
0.02527015     1.271662e-288  1.480668e-199 
0.02549938     3.430389e-288  3.008344e-199 
0.02572883     9.203486e-288  6.071443e-199 
0.02595839     2.45449e-287   1.216827e-198 
0.02618817     6.511359e-287  2.423055e-198 
0.02641806     1.717392e-286  4.793085e-198 
0.02664818     4.506876e-286  9.42396e-198  
0.02687841     1.176196e-285  1.841368e-197 
0.02710886     3.054818e-285  3.577536e-197 
0.02733943     7.891495e-285  6.910139e-197 
0.02757011     2.027724e-284  1.327133e-196 
0.02780101     5.185821e-284  2.535679e-196 
0.02803203     1.319279e-283  4.818941e-196 
0.02826327     3.340436e-283  9.114665e-196 
0.02849463     8.413608e-283  1.71558e-195  
0.0287261      2.108162e-282  3.214074e-195 
0.0289578      5.258227e-282  5.996769e-195 
0.02918961     1.304913e-281  1.114169e-194 
0.02942154     3.222174e-281  2.061888e-194 
0.02965369     7.920809e-281  3.80276e-194  
0.02988596     1.93734e-280   6.988502e-194 
0.03011835     4.714509e-280  1.280018e-193 
0.03035096     1.142097e-279  2.338019e-193 
0.03058369     2.752933e-279  4.258405e-193 
0.03081654     6.602627e-279  7.736033e-193 
0.0310495      1.575689e-278  1.402022e-192 
0.03128269     3.743622e-278  2.536158e-192 
0.031516       8.850459e-278  4.578472e-192 
0.03174942     2.081994e-277  8.250022e-192 
0.03198296     4.873069e-277  1.484008e-191 
0.03221662     1.134856e-276  2.665119e-191 
0.0324504      2.629785e-276  4.779086e-191 
0.03268441     6.067073e-276  8.560583e-191 
0.03291853     1.39296e-275   1.531398e-190 
0.03315278     3.182769e-275  2.736051e-190 
0.03338714     7.237275e-275  4.88236e-190  
0.03362162     1.637741e-274  8.701711e-190 
0.03385633     3.689888e-274  1.549398e-189 
0.03409116     8.273452e-274  2.755154e-189 
0.03432612     1.846208e-273  4.892611e-189 
0.03456119     4.100208e-273  8.676265e-189 
0.03479637     9.062805e-273  1.536384e-188 
0.03503168     1.993773e-272  2.716488e-188 
0.03526723     4.367808e-272  4.796849e-188 
0.03550289     9.524873e-272  8.456325e-188 
0.03573868     2.067679e-271  4.082663e-190 
0.03597458     4.468258e-271  7.194927e-190 
0.03621061     9.612463e-271  1.26567e-189  
0.03644676     2.058665e-270  2.222287e-189 
0.03668302     4.38948e-270   3.89444e-189  
0.03691941     9.318079e-270  6.811242e-189 
0.03715591     1.969469e-269  1.188817e-188 
0.03739266     4.146612e-269  2.071177e-188 
0.03762953     8.693418e-269  3.600514e-188 
0.03786652     1.814939e-268  6.244985e-188 
0.03810364     3.773287e-268  1.080672e-187 
0.03834087     7.812165e-268  1.865679e-187 
0.03857835     1.611518e-267  3.214273e-187 
0.03881595     3.310938e-267  5.524375e-187 
0.03905368     6.775617e-267  9.471586e-187 
0.03929152     1.381201e-266  1.619881e-186 
0.03952949     2.804781e-266  2.76345e-186  
0.03976758     5.673893e-266  4.702397e-186 
0.0400058      1.143433e-265  7.981142e-186 
0.04024414     2.295727e-265  1.351041e-185 
0.0404826      4.592384e-265  2.281037e-185 
0.04072119     9.153327e-265  3.841121e-185 
0.0409599      1.81786e-264   6.451312e-185 
0.04119873     3.597517e-264  1.080673e-184 
0.04143769     7.094736e-264  1.805432e-184 
0.04167678     1.394486e-263  3.008214e-184 
0.04191598     2.731833e-263  4.998891e-184 
0.04215532     5.334232e-263  8.284381e-184 
0.04239478     1.038226e-262  1.369198e-183 
0.04263436     2.014373e-262  2.25683e-183  
0.04287407     3.896212e-262  3.709908e-183 
0.0431139      7.513214e-262  6.082163e-183 
0.04335387     1.444468e-261  9.944536e-183 
0.04359395     2.768945e-261  1.621583e-182 
0.04383417     5.292635e-261  2.637019e-182 
0.04407451     1.008808e-260  4.276626e-182 
0.04431497     1.917592e-260  6.916911e-182 
0.04455557     3.635282e-260  1.115716e-181 
0.04479629     6.873543e-260  1.7949e-181   
0.04503714     1.296337e-259  2.879925e-181 
0.04527811     2.438792e-259  4.608682e-181 
0.04551922     4.576965e-259  7.355748e-181 
0.04576045     8.569497e-259  1.170932e-180 
0.04600181     1.600715e-258  1.859054e-180 
0.0462433      2.983131e-258  2.943858e-180 
0.04648491     5.547133e-258  4.649621e-180 
0.04672666     1.029268e-257  7.324977e-180 
0.04696854     1.905738e-257  1.151041e-179 
0.04721054     3.521312e-257  7.425071e-180 
0.04745267     6.493627e-257  1.176226e-179 
0.04769494     1.195201e-256  1.858703e-179 
0.04793733     2.195734e-256  2.929993e-179 
0.04817985     4.026298e-256  4.607519e-179 
0.04842237     7.366516e-256  7.226169e-179 
0.04866503     1.345333e-255  1.130608e-178 
0.04890781     2.452647e-255  1.764774e-178 
0.04915073     4.463874e-255  2.748208e-178 
0.04939377     8.111049e-255  4.269739e-178 
0.04963695     1.471432e-254  6.618495e-178 
0.04988026     2.664974e-254  1.023611e-177 
0.0501237      4.818784e-254  1.579546e-177 
0.05036727     8.69942e-254   2.431951e-177 
0.05061084     1.567532e-253  3.735127e-177 
0.05085454     2.820228e-253  5.724059e-177 
0.05109838     5.066529e-253  8.753169e-177 
0.05134235     9.0885e-253    1.335677e-176 
0.05158645     1.627909e-252  2.033856e-176 
0.05183068     2.911554e-252  3.09052e-176  
0.05207491     5.19793e-252   4.685277e-176 
0.05231928     9.265956e-252  7.088298e-176 
0.05256378     1.649351e-251  1.070196e-175 
0.05280842     2.931618e-251  1.612542e-175 
0.05305318     5.203125e-251  2.424907e-175 
0.05329809     9.221058e-251  3.639344e-175 
0.05354299     1.631249e-250  5.450093e-175 
0.05378803     2.881578e-250  8.146065e-175 
0.0540332      5.08288e-250   1.215226e-174 
0.0542785      8.952545e-250  1.809409e-174 
0.05452395     1.574443e-249  2.689041e-174 
0.05476939     2.76369e-249   3.987937e-174 
0.05501496     4.843711e-249  5.90334e-174  
0.05526068     8.476314e-249  8.72274e-174  
0.05550652     1.481113e-248  1.286529e-173 
0.05575237     2.583247e-248  1.89368e-173  
0.05599836     4.498583e-248  2.782419e-173 
0.05624448     7.82199e-248   4.081076e-173 
0.05649073     1.357975e-247  5.975422e-173 
0.05673699     2.353138e-247  8.732006e-173 
0.05698339     4.071164e-247  1.273832e-172 
0.05722992     7.032369e-247  1.855103e-172 
0.05747659     1.212817e-246  2.697059e-172 
0.05772325     2.08761e-246   3.913751e-172 
0.05797006     3.587655e-246  5.669907e-172 
0.058217       6.155711e-246  8.200492e-172 
0.05846409     1.054501e-245  1.184105e-171 
0.05871117     1.802893e-245  1.706651e-171 
0.05895839     3.077449e-245  2.45587e-171  
0.05920575     5.244556e-245  3.528385e-171 
0.05945325     8.923119e-245  5.061256e-171 
0.05970075     1.515215e-244  7.247186e-171 
0.05994838     2.568773e-244  1.036117e-170 
0.06019616     4.347737e-244  1.479028e-170 
0.06044394     7.34403e-244   2.10758e-170  
0.06069185     1.238477e-243  2.998686e-170 
0.06093991     2.08508e-243   4.260133e-170 
0.06118811     3.50456e-243   6.043207e-170 
0.0614363      5.878815e-243  8.55815e-170  
0.06168464     9.845482e-243  1.210203e-169 
0.06193312     1.646214e-242  1.708866e-169 
0.0621816      2.747249e-242  2.409041e-169 
0.06243022     4.577226e-242  3.391249e-169 
0.06267898     7.613938e-242  4.767173e-169 
0.06292774     1.264094e-241  6.690593e-169 
0.06317664     2.095229e-241  9.376951e-169 
0.06342568     3.467138e-241  1.312372e-168 
0.06367473     5.726258e-241  1.833892e-168 
0.06392391     9.442278e-241  2.559213e-168 
0.06417324     1.554501e-240  3.566624e-168 
0.06442257     2.554283e-240  4.962951e-168 
0.06467204     4.19024e-240   6.896731e-168 
0.06492166     6.862845e-240  9.571373e-168 
0.06517127     1.121875e-239  1.326342e-167 
0.06542103     1.831079e-239  1.835598e-167 
0.06567079     2.983041e-239  2.536646e-167 
0.06592069     4.852114e-239  3.50102e-167  
0.06617074     7.879719e-239  4.825993e-167 
0.06642078     1.277209e-238  6.642869e-167 
0.06667097     2.066914e-238  9.132396e-167 
0.06692131     3.339666e-238  1.253937e-166 
0.06717164     5.386186e-238  1.719296e-166 
0.06742212     8.673531e-238  2.354497e-166 
0.0676726      1.39419e-237   3.219902e-166 
0.06792322     2.237652e-237  4.398188e-166 
0.06817399     3.585975e-237  6.000591e-166 
0.06842476     5.73642e-237   8.175697e-166 
0.06867568     9.162772e-237  1.112639e-165 
0.0689266      1.46099e-236   1.512196e-165 
0.06917766     2.326057e-236  2.052903e-165 
0.06942887     3.697849e-236  2.783776e-165 
0.06968007     5.868211e-236  3.769908e-165 
0.06993143     9.298701e-236  5.099718e-165 
0.07018278     1.470915e-235  6.88979e-165  
0.07043429     2.323451e-235  9.298072e-165 
0.07068579     3.66386e-235   1.253228e-164 
0.07093744     5.769304e-235  1.687331e-164 
0.07118924     9.071688e-235  1.624078e-164 
0.07144103     1.424017e-234  2.199062e-164 
0.07169298     2.232232e-234  2.974436e-164 
0.07194492     3.493327e-234  4.018219e-164 
0.07219702     5.459317e-234  5.422611e-164 
0.07244911     8.517502e-234  7.30893e-164  
0.07270135     1.327061e-233  9.841335e-164 
0.0729536      2.064203e-233  1.32352e-163  
0.07320599     3.206387e-233  1.778131e-163 
0.07345838     4.972418e-233  2.386043e-163 
0.07371092     7.700916e-233  3.198593e-163 
0.07396361     1.191102e-232  4.283646e-163 
0.0742163      1.839389e-232  5.730174e-163 
0.07446914     2.836843e-232  7.657747e-163 
0.07472198     4.368351e-232  1.022213e-162 
0.07497497     6.718031e-232  1.363244e-162 
0.07522796     1.03154e-231   1.816039e-162 
0.07548111     1.581855e-231  2.416984e-162 
0.07573425     2.42202e-231   3.213247e-162 
0.07598754     3.703809e-231  4.267939e-162 
0.07624083     5.655425e-231  5.662712e-162 
0.07649428     8.624672e-231  7.506595e-162 
0.07674772     1.313321e-230  9.940366e-162 
0.07700132     1.997442e-230  1.315171e-161 
0.07725492     3.033417e-230  1.738242e-161 
0.07750866     4.601147e-230  2.295448e-161 
0.07776241     6.969088e-230  3.028205e-161 
0.07801631     1.054337e-229  3.991571e-161 
0.07827021     1.592764e-229  5.256184e-161 
0.07852427     2.403279e-229  6.915807e-161 
0.07877832     3.62106e-229   9.090603e-161 
0.07903253     5.449654e-229  1.193984e-160 
0.07928674     8.189852e-229  1.566702e-160 
0.07954094     1.229041e-228  2.053808e-160 
0.07979531     1.842312e-228  2.690281e-160 
0.08004967     2.757784e-228  3.520722e-160 
0.08030418     4.12359e-228   4.604058e-160 
0.0805587      6.157466e-228  6.01528e-160  
0.08081337     9.184482e-228  7.853329e-160 
0.08106804     1.368104e-227  1.024394e-159 
0.08132286     2.035648e-227  1.335289e-159 
0.08157769     3.024833e-227  1.739035e-159 
0.08183267     4.489818e-227  2.263287e-159 
0.08208765     6.655533e-227  2.943072e-159 
0.08234278     9.85564e-227   3.824428e-159 
0.08259792     1.457553e-226  4.965571e-159 
0.08285321     2.153327e-226  6.442979e-159 
0.0831085      3.177107e-226  8.353189e-159 
0.08336379     4.681601e-226  3.529881e-158 
0.08361924     6.891449e-226  4.586082e-158 
0.08387469     1.013153e-225  5.953411e-158 
0.0841303      1.488015e-225  7.723399e-158 
0.0843859      2.18272e-225   1.001151e-157 
0.08464166     3.198494e-225  1.296919e-157 
0.08489743     4.681077e-225  1.678728e-157 
0.08515335     6.844073e-225  2.171593e-157 
0.08540927     9.994176e-225  2.806966e-157 
0.08566519     1.45766e-224   3.625419e-157 
0.08592127     2.123993e-224  4.679685e-157 
0.08617734     3.091197e-224  6.035945e-157 
0.08643358     4.49449e-224   7.78073e-157  
0.08668982     6.526882e-224  1.002251e-156 
0.08694605     9.466917e-224  1.290076e-156 
0.08720245     1.371844e-223  1.659628e-156 
0.08745885     1.985634e-223  2.133527e-156 
0.0877154      2.871453e-223  2.741266e-156 
0.08797196     4.147611e-223  3.519662e-156 
0.08822851     5.983962e-223  4.515945e-156 
0.08848523     8.625499e-223  5.79114e-156  
0.08874194     1.241895e-222  7.421337e-156 
0.08899882     1.786462e-222  9.505531e-156 
0.0892557      2.566874e-222  1.216696e-155 
0.08951257     3.684083e-222  1.556341e-155 
0.08976961     5.282928e-222  1.989841e-155 
0.09002664     7.567188e-222  2.542478e-155 
0.09028384     1.082969e-221  3.247071e-155 
0.09054104     1.548191e-221  4.144328e-155 
0.09079824     2.210859e-221  5.28623e-155  
0.0910556      3.154449e-221  6.739676e-155 
0.09131296     4.495829e-221  8.587544e-155 
0.09157032     6.400699e-221  1.093554e-154 
0.09182784     9.105007e-221  1.391947e-154 
0.09208536     1.293813e-220  1.770722e-154 
0.09234304     1.836992e-220  2.251614e-154 
0.09260073     2.60547e-220   2.861467e-154 
0.09285841     3.691595e-220  3.634455e-154 
0.09311626     5.226202e-220  4.614403e-154 
0.09337411     7.390863e-220  5.855344e-154 
0.09363196     1.044123e-219  7.425976e-154 
0.09388997     1.47389e-219   9.414345e-154 
0.09414798     2.078456e-219  1.19288e-153  
0.09440599     2.928115e-219  1.51069e-153  
0.09466417     4.12196e-219   5.799904e-155 
0.09492234     5.796787e-219  7.353064e-155 
0.09518052     8.143864e-219  9.317211e-155 
0.09543886     1.143222e-218  1.180174e-154 
0.0956972      1.603254e-218  5.533111e-154 
0.09595554     2.24619e-218   7.01357e-154  
0.09621405     3.144543e-218  8.88673e-154  
0.09647255     4.397885e-218  1.12541e-153  
0.09673106     6.144878e-218  1.424447e-153 
0.09698973     8.579561e-218  1.802264e-153 
0.0972484      1.19674e-217   2.27909e-153  
0.09750724     1.668091e-217  2.881027e-153 
0.09776608     2.322878e-217  3.640082e-153 
0.09802491     3.231543e-217  4.596778e-153 
0.09828375     4.491344e-217  5.801966e-153 
0.09854276     6.237842e-217  7.320582e-153 
0.09880176     8.655469e-217  9.232114e-153 
0.09906093     1.200169e-216  1.163889e-152 
0.0993201      1.662601e-216  1.4666e-152   
0.09957928     2.301073e-216  1.847157e-152 
0.09983845     3.181823e-216  2.325358e-152 
0.1000978      4.396692e-216  2.926431e-152 
0.1003571      6.070099e-216  3.681149e-152 
0.1006165      8.373146e-216  4.628347e-152 
0.100876       1.15423e-215   5.817465e-152 
0.1011355      1.58965e-215   7.308712e-152 
0.101395       2.187315e-215  9.178046e-152 
0.1016547      3.007639e-215  1.152208e-151 
0.1019143      4.131989e-215  1.445835e-151 
0.102174       5.671736e-215  1.813489e-151 
0.1024337      7.778599e-215  2.273635e-151 
0.1026936      1.066128e-214  2.849724e-151 
0.1029534      1.459953e-214  3.570212e-151 
0.1032132      1.997534e-214  4.470896e-151 
0.1034733      2.731325e-214  5.597202e-151 
0.1037333      3.731583e-214  7.004248e-151 
0.1039933      5.093926e-214  8.761301e-151 
0.1042535      6.949281e-214  1.095619e-150 
0.1045137      9.472521e-214  1.36952e-150  
0.1047739      1.290111e-213  1.711174e-150 
0.1050342      1.755959e-213  2.137478e-150 
0.1052946      2.388046e-213  2.668863e-150 
0.1055549      3.245036e-213  3.33096e-150  
0.1058153      4.405997e-213  4.155591e-150 
0.1060758      5.978731e-213  5.183031e-150 
0.1063364      8.106334e-213  6.461853e-150 
0.1065969      1.098251e-212  8.052897e-150 
0.1068576      1.487062e-212  1.003305e-149 
0.1071183      2.011924e-212  1.249492e-149 
0.107379       2.719864e-212  1.555446e-149 
0.1076397      3.674009e-212  1.935529e-149 
0.1079006      4.959931e-212  2.407863e-149 
0.1081615      6.69058e-212   9.810324e-149 
0.1084223      9.018209e-212  1.220704e-148 
0.1086832      1.214657e-211  1.51829e-148  
0.1089443      1.635128e-211  1.887911e-148 
0.1092053      2.199491e-211  2.346533e-148 
0.1094664      2.956407e-211  2.915346e-148 
0.1097274      3.970789e-211  3.620529e-148 
0.1099887      5.330262e-211  4.495085e-148 
0.1102499      7.149713e-211  5.578571e-148 
0.1105111      9.583183e-211  6.920345e-148 
0.1107723      1.283561e-210  8.581281e-148 
0.1110337      1.718281e-210  1.0638e-147   
0.1112951      2.298539e-210  1.318224e-147 
0.1115565      3.072494e-210  1.632826e-147 
0.1118179      4.104046e-210  2.021678e-147 
0.1120795      5.479103e-210  2.502478e-147 
0.1123411      7.309756e-210  3.09636e-147  
0.1126027      9.745339e-210  3.829626e-147 
0.1128643      1.298337e-209  4.734614e-147 
0.1131258      1.7285e-209    5.851059e-147 
0.1133876      2.300008e-209  7.228866e-147 
0.1136494      3.058325e-209  8.927477e-147 
0.1139111      4.063759e-209  1.102078e-146 
0.1141729      5.395987e-209  1.359944e-146 
0.1144348      7.161657e-209  1.67772e-146  
0.1146967      9.498786e-209  2.06893e-146  
0.1149587      1.259027e-208  2.55035e-146  
0.1152206      1.667665e-208  3.142527e-146 
0.1154827      2.207871e-208  3.871207e-146 
0.1157448      2.921061e-208  4.766926e-146 
0.1160069      3.861988e-208  5.867546e-146 
0.116269       5.102653e-208  7.219433e-146 
0.1165313      6.73888e-208   8.880598e-146 
0.1167936      8.893996e-208  1.091969e-145 
0.1170559      1.17307e-207   1.342171e-145 
0.1173182      1.546223e-207  1.649055e-145 
0.1175805      2.036768e-207  2.025319e-145 
0.117843       2.68173e-207   2.48683e-145  
0.1181054      3.528646e-207  3.052329e-145 
0.1183679      4.640122e-207  3.744976e-145 
0.1186304      6.097946e-207  4.59303e-145  
0.118893       8.010311e-207  5.631768e-145 
0.1191557      1.051582e-206  6.902747e-145 
0.1194183      1.379646e-206  8.457294e-145 
0.119681       1.808949e-206  1.035798e-144 
0.1199438      2.37081e-206   1.268284e-144 
0.1202066      3.105252e-206  1.55237e-144  
0.1204695      4.064749e-206  1.899379e-144 
0.1207323      5.317538e-206  6.787819e-144 
0.1209951      6.95235e-206   8.306459e-144 
0.1212582      9.086273e-206  1.016238e-143 
0.1215212      1.186823e-205  1.242816e-143 
0.1217842      1.549259e-205  1.519322e-143 
0.1220472      2.021119e-205  1.856616e-143 
0.1223104      2.635613e-205  2.268232e-143 
0.1225736      3.434946e-205  2.770036e-143 
0.1228368      4.474076e-205  3.381558e-143 
0.1231         5.82424e-205   4.126506e-143 
0.1233634      7.57903e-205   5.034368e-143 
0.1236268      9.856861e-205  6.13966e-143  
0.1238901      1.28119e-204   7.484819e-143 
0.1241535      1.66433e-204   9.121275e-143 
0.1244171      2.161256e-204  1.111293e-142 
0.1246807      2.805009e-204  1.35344e-142  
0.1249442      3.638488e-204  1.647733e-142 
0.1252078      4.717028e-204  2.005268e-142 
0.1254714      6.11189e-204   2.439478e-142 
0.1257351      7.916271e-204  2.967028e-142 
0.1259989      1.024772e-203  3.60733e-142  
0.1262626      1.325872e-203  4.384202e-142 
0.1265264      1.714537e-203  5.326447e-142 
0.1267903      2.21638e-203   6.469761e-142 
0.1270542      2.863599e-203  7.85562e-142  
0.1273182      3.697874e-203  9.534862e-142 
0.1275821      4.772691e-203  1.156886e-141 
0.1278461      6.156626e-203  1.403167e-141 
0.1281102      7.93905e-203   1.701495e-141 
0.1283743      1.023214e-202  2.062499e-141 
0.1286384      1.318071e-202  2.499193e-141 
0.1289026      1.697003e-202  3.027263e-141 
0.1291667      2.183736e-202  3.665605e-141 
0.129431       2.809157e-202  2.363798e-142 
0.1296953      3.61187e-202   2.865351e-142 
0.1299596      4.641622e-202  3.472087e-142 
0.130224       5.961964e-202  4.205796e-142 
0.1304885      7.65553e-202   5.093445e-142 
0.130753       9.82527e-202   6.166227e-142 
0.1310175      1.260365e-201  7.462284e-142 
0.131282       1.615965e-201  9.027525e-142 
0.1315465      2.070862e-201  1.091722e-141 
0.1318112      2.652979e-201  1.319969e-141 
0.1320759      3.397055e-201  1.595377e-141 
0.1323406      4.347758e-201  1.927576e-141 
0.1326054      5.562899e-201  2.328461e-141 
0.1328703      7.114199e-201  2.811737e-141 
0.1331352      9.093819e-201  3.394113e-141 
0.1334003      1.162098e-200  1.208171e-140 
0.1336654      1.484317e-200  1.458576e-140 
0.1339304      1.894952e-200  1.760242e-140 
0.1341955      2.418033e-200  2.123537e-140 
0.1344608      3.08462e-200   2.561259e-140 
0.134726       3.933114e-200  3.088112e-140 
0.1349913      5.012682e-200  3.722023e-140 
0.1352566      6.385678e-200  4.484481e-140 
0.1355218      8.131078e-200  5.401227e-140 
0.1357873      1.035071e-199  6.503982e-140 
0.1360528      1.31702e-199   7.829105e-140 
0.1363182      1.675022e-199  9.420876e-140 
0.1365837      2.129391e-199  1.133228e-139 
0.1368492      2.705774e-199  1.362667e-139 
0.1371148      3.437247e-199  1.638208e-139 
0.1373805      4.364511e-199  1.968774e-139 
0.1376461      5.539405e-199  2.36522e-139  
0.137912       7.028696e-199  2.840903e-139 
0.1381778      8.914503e-199  3.411072e-139 
0.1384437      1.130144e-198  4.094258e-139 
0.1387095      1.432128e-198  4.912575e-139 
0.1389756      1.814338e-198  5.893216e-139 
0.1392416      2.29757e-198   7.067158e-139 
0.1395077      2.908246e-198  8.472013e-139 
0.1397737      3.679605e-198  1.01526e-138  
0.1400399      4.654316e-198  1.216402e-138 
0.1403062      5.884664e-198  1.456893e-138 
0.1405724      7.437055e-198  1.744335e-138 
0.1408387      9.394894e-198  2.087778e-138 
0.1411051      1.186535e-197  2.498331e-138 
0.1413716      1.497929e-197  2.988602e-138 
0.141638       1.890266e-197  3.573871e-138 
0.1419044      2.38439e-197   4.272297e-138 
0.1421711      3.006981e-197  5.106153e-138 
0.1424377      3.790546e-197  6.100666e-138 
0.1427044      4.776186e-197  7.286395e-138 
0.142971       6.015483e-197  8.699634e-138 
0.1432378      7.574492e-197  1.038487e-137 
0.1435047      9.533583e-197  1.239239e-137 
0.1437715      1.199461e-196  1.478306e-137 
0.1440383      1.508511e-196  1.762904e-137 
0.1443054      1.896787e-196  2.101874e-137 
0.1445724      2.384038e-196  2.505183e-137 
0.1448395      2.99524e-196   2.984881e-137 
0.1451065      3.761645e-196  3.555253e-137 
0.1453735      4.722227e-196  4.233213e-137 
0.1456408      5.926643e-196  5.039453e-137 
0.145908       7.435194e-196  5.997258e-137 
0.1461752      9.323962e-196  7.13476e-137  
0.1464425      1.168784e-195  2.230776e-136 
0.1467099      1.464782e-195  2.654549e-136 
0.1469774      1.835028e-195  3.157817e-136 
0.1472448      2.29799e-195   3.755293e-136 
0.1475123      2.876641e-195  4.464389e-136 
0.1477797      3.599615e-195  5.305697e-136 
0.1480473      4.503388e-195  6.304399e-136 
0.148315       5.631879e-195  7.488725e-136 
0.1485826      7.040319e-195  8.89274e-136  
0.1488503      8.797413e-195  1.05567e-135  
0.1491181      1.099048e-194  1.25298e-135  
0.149386       1.372476e-194  1.486706e-135 
0.1496538      1.713269e-194  1.763486e-135 
0.1499217      2.137887e-194  2.091153e-135 
0.1501895      2.666742e-194  2.478942e-135 
0.1504576      3.32574e-194   2.938137e-135 
0.1507256      4.146016e-194  3.481334e-135 
0.1509937      5.166641e-194  4.123703e-135 
0.1512617      6.436086e-194  4.883122e-135 
0.1515298      8.014296e-194  5.780662e-135 
0.151798       9.977318e-194  6.842046e-135 
0.1520663      1.241654e-193  8.095914e-135 
0.1523346      1.544637e-193  9.576745e-135 
0.1526028      1.92083e-193   1.132513e-134 
0.1528713      2.388163e-193  1.339056e-134 
0.1531398      2.968071e-193  1.582804e-134 
0.1534082      3.687399e-193  1.870368e-134 
0.1536767      4.579355e-193  2.209531e-134 
0.1539452      5.684969e-193  2.609438e-134 
0.1542138      7.056071e-193  3.081239e-134 
0.1544825      8.754477e-193  3.637298e-134 
0.1547512      1.085756e-192  4.29248e-134  
0.1550199      1.346089e-192  5.064249e-134 
0.1552888      1.668512e-192  5.97388e-134  
0.1555576      2.0674e-192    7.04491e-134  
0.1558265      2.560712e-192  8.305619e-134 
0.1560954      3.170597e-192  9.789183e-134 
0.1563645      3.925006e-192  1.153603e-133 
0.1566336      4.857163e-192  1.359082e-133 
0.1569027      6.008472e-192  1.200608e-134 
0.1571718      7.429855e-192  1.415802e-134 