# Probe 0 (0 0 0)
# Probe 1 (0 0.011 0)
# Time         0              1             
0              0              0             
1.199999e-06   9.429618e-10   9.429618e-10  
2.639997e-06   2.074506e-09   2.074506e-09  
4.367992e-06   3.432336e-09   3.432336e-09  
6.441588e-06   5.061703e-09   5.061703e-09  
8.929898e-06   7.016896e-09   7.016896e-09  
1.191586e-05   9.363059e-09   9.363059e-09  
1.549901e-05   1.217835e-08   1.217835e-08  
1.979876e-05   1.555656e-08   1.555656e-08  
2.495847e-05   1.961022e-08   1.961022e-08  
3.115011e-05   2.447434e-08   2.447434e-08  
3.858006e-05   3.031088e-08   3.031088e-08  
4.7496e-05     3.731417e-08   3.731417e-08  
5.819498e-05   4.571719e-08   4.571719e-08  
7.103375e-05   5.579964e-08   5.579964e-08  
8.643988e-05   6.789661e-08   6.789661e-08  
0.0001049271   8.241048e-08   8.241048e-08  
0.0001271112   9.982313e-08   9.982313e-08  
0.0001537313   1.207128e-07   1.207128e-07  
0.0001856744   1.457724e-07   1.457724e-07  
0.0002240038   1.758316e-07   1.758316e-07  
0.0002699982   2.118873e-07   2.118873e-07  
0.0003251865   2.551288e-07   2.551288e-07  
0.0003914125   3.069878e-07   3.069878e-07  
0.0004698809   3.683901e-07   3.683901e-07  
0.0005610194   4.396481e-07   4.396481e-07  
0.0006652647   5.210766e-07   5.210766e-07  
0.0007830879   6.130123e-07   6.130123e-07  
0.0009149814   7.158027e-07   7.158027e-07  
0.001061041    8.294809e-07   8.294809e-07  
0.001212372    9.470946e-07   9.470946e-07  
0.001368634    1.068362e-06   1.068362e-06  
0.001529483    1.193001e-06   1.193001e-06  
0.001694212    1.320448e-06   1.320448e-06  
0.001861766    1.449877e-06   1.449877e-06  
0.002032011    1.581175e-06   1.581175e-06  
0.002204857    1.714261e-06   1.714261e-06  
0.002380199    1.849048e-06   1.849048e-06  
0.002558047    1.985533e-06   1.985533e-06  
0.00273828     2.123616e-06   2.123616e-06  
0.002920895    2.263286e-06   2.263286e-06  
0.003105958    2.404583e-06   2.404583e-06  
0.003293678    2.547659e-06   2.547659e-06  
0.003484059    2.692508e-06   2.692508e-06  
0.003675617    2.837992e-06   2.837992e-06  
0.003868065    2.983891e-06   2.983891e-06  
0.004061413    3.130211e-06   3.130211e-06  
0.004255671    3.276953e-06   3.276953e-06  
0.004450769    3.424066e-06   3.424066e-06  
0.004646715    3.571552e-06   3.571552e-06  
0.004843518    3.719415e-06   3.719415e-06  
0.005041107    3.867598e-06   3.867598e-06  
0.005239408    4.016045e-06   4.016045e-06  
0.005438506    4.164818e-06   4.164818e-06  
0.005638329    4.31386e-06    4.31386e-06   
0.0058388      4.463112e-06   4.463112e-06  
0.006040006    4.612637e-06   4.612637e-06  
0.00624187     4.762376e-06   4.762376e-06  
0.006444312    4.912269e-06   4.912269e-06  
0.006647422    5.062379e-06   5.062379e-06  
0.006851118    5.212646e-06   5.212646e-06  
0.007055405    5.363071e-06   5.363071e-06  
0.007260287    5.513656e-06   5.513656e-06  
0.00746568     5.66434e-06    5.66434e-06   
0.007671675    5.815185e-06   5.815185e-06  
0.007878189    5.966131e-06   5.966131e-06  
0.008085311    6.117241e-06   6.117241e-06  
0.008292958    6.268454e-06   6.268454e-06  
0.00850122     6.419834e-06   6.419834e-06  
0.008710013    6.571319e-06   6.571319e-06  
0.00891934     6.72291e-06    6.72291e-06   
0.009129113    6.874543e-06   6.874543e-06  
0.009339336    7.026218e-06   7.026218e-06  
0.009550011    7.177937e-06   7.177937e-06  
0.009761139    7.329701e-06   7.329701e-06  
0.009972722    7.481509e-06   7.481509e-06  
0.01018467     7.633298e-06   7.633298e-06  
0.01039708     7.785134e-06   7.785134e-06  
0.01060986     7.936951e-06   7.936951e-06  
0.0108231      8.088816e-06   8.088816e-06  
0.01103672     8.240665e-06   8.240665e-06  
0.0112507      8.392497e-06   8.392497e-06  
0.01146507     8.544313e-06   8.544313e-06  
0.01167971     8.696047e-06   8.696047e-06  
0.01189474     8.847767e-06   8.847767e-06  
0.01211005     8.999406e-06   8.999406e-06  
0.01232574     9.151032e-06   9.151032e-06  
0.01254171     9.302578e-06   9.302578e-06  
0.01275798     9.454046e-06   9.454046e-06  
0.01297453     9.605434e-06   9.605434e-06  
0.01319147     9.756812e-06   9.756812e-06  
0.01340869     9.908113e-06   9.908113e-06  
0.01362621     1.005934e-05   1.005934e-05  
0.01384403     1.021049e-05   1.021049e-05  
0.01406213     1.036156e-05   1.036156e-05  
0.01428053     1.051255e-05   1.051255e-05  
0.01449913     1.066341e-05   1.066341e-05  
0.01471802     1.081419e-05   1.081419e-05  
0.0149372      1.09649e-05    1.09649e-05   
0.01515669     1.111553e-05   1.111553e-05  
0.01537637     1.126603e-05   1.126603e-05  
0.01559636     1.141645e-05   1.141645e-05  
0.01581664     1.15668e-05    1.15668e-05   
0.01603713     1.171702e-05   1.171702e-05  
0.01625791     1.186716e-05   1.186716e-05  
0.016479       1.201724e-05   1.201724e-05  
0.01670029     1.216718e-05   1.216718e-05  
0.01692179     1.231698e-05   1.231698e-05  
0.01714358     1.246671e-05   1.246671e-05  
0.01736559     1.261631e-05   1.261631e-05  
0.01758779     1.276578e-05   1.276578e-05  
0.01781031     1.291517e-05   1.291517e-05  
0.01803303     1.306444e-05   1.306444e-05  
0.01825596     1.321357e-05   1.321357e-05  
0.01847909     1.336257e-05   1.336257e-05  
0.01870253     1.351151e-05   1.351151e-05  
0.01892618     1.366031e-05   1.366031e-05  
0.01915004     1.380899e-05   1.380899e-05  
0.01937411     1.395753e-05   1.395753e-05  
0.01959839     1.410595e-05   1.410595e-05  
0.01982288     1.425423e-05   1.425423e-05  
0.02004757     1.440239e-05   1.440239e-05  
0.02027248     1.455042e-05   1.455042e-05  
0.0204976      1.469832e-05   1.469832e-05  
0.02072293     1.484609e-05   1.484609e-05  
0.02094847     1.499374e-05   1.499374e-05  
0.02117423     1.514127e-05   1.514127e-05  
0.02140019     1.528866e-05   1.528866e-05  
0.02162637     1.543594e-05   1.543594e-05  
0.02185277     1.558309e-05   1.558309e-05  
0.02207927     1.573005e-05   1.573005e-05  
0.02230599     1.587688e-05   1.587688e-05  
0.02253292     1.602359e-05   1.602359e-05  
0.02276007     1.617018e-05   1.617018e-05  
0.02298733     1.631658e-05   1.631658e-05  
0.0232148      1.646286e-05   1.646286e-05  
0.02344249     1.660902e-05   1.660902e-05  
0.02367029     1.6755e-05     1.6755e-05    
0.02389831     1.690085e-05   1.690085e-05  
0.02412655     1.704659e-05   1.704659e-05  
0.0243549      1.719213e-05   1.719213e-05  
0.02458346     1.733757e-05   1.733757e-05  
0.02481214     1.748281e-05   1.748281e-05  
0.02504103     1.762794e-05   1.762794e-05  
0.02527015     1.777296e-05   1.777296e-05  
0.02549938     1.791779e-05   1.791779e-05  
0.02572883     1.806251e-05   1.806251e-05  
0.02595839     1.820704e-05   1.820704e-05  
0.02618817     1.835146e-05   1.835146e-05  
0.02641806     1.84957e-05    1.84957e-05   
0.02664818     1.863983e-05   1.863983e-05  
0.02687841     1.878378e-05   1.878378e-05  
0.02710886     1.892762e-05   1.892762e-05  
0.02733943     1.907128e-05   1.907128e-05  
0.02757011     1.921475e-05   1.921475e-05  
0.02780101     1.935813e-05   1.935813e-05  
0.02803203     1.950132e-05   1.950132e-05  
0.02826327     1.964441e-05   1.964441e-05  
0.02849463     1.978732e-05   1.978732e-05  
0.0287261      1.993005e-05   1.993005e-05  
0.0289578      2.007268e-05   2.007268e-05  
0.02918961     2.021513e-05   2.021513e-05  
0.02942154     2.035741e-05   2.035741e-05  
0.02965369     2.049958e-05   2.049958e-05  
0.02988596     2.064159e-05   2.064159e-05  
0.03011835     2.078342e-05   2.078342e-05  
0.03035096     2.092514e-05   2.092514e-05  
0.03058369     2.10667e-05    2.10667e-05   
0.03081654     2.120808e-05   2.120808e-05  
0.0310495      2.13493e-05    2.13493e-05   
0.03128269     2.149041e-05   2.149041e-05  
0.031516       2.163136e-05   2.163136e-05  
0.03174942     2.177214e-05   2.177214e-05  
0.03198296     2.191275e-05   2.191275e-05  
0.03221662     2.205319e-05   2.205319e-05  
0.0324504      2.219347e-05   2.219347e-05  
0.03268441     2.233365e-05   2.233365e-05  
0.03291853     2.247366e-05   2.247366e-05  
0.03315278     2.261351e-05   2.261351e-05  
0.03338714     2.275319e-05   2.275319e-05  
0.03362162     2.289271e-05   2.289271e-05  
0.03385633     2.303214e-05   2.303214e-05  
0.03409116     2.31714e-05    2.31714e-05   
0.03432612     2.33105e-05    2.33105e-05   
0.03456119     2.344944e-05   2.344944e-05  
0.03479637     2.358822e-05   2.358822e-05  
0.03503168     2.372684e-05   2.372684e-05  
0.03526723     2.386537e-05   2.386537e-05  
0.03550289     2.400374e-05   2.400374e-05  
0.03573868     2.414195e-05   2.414195e-05  
0.03597458     2.428e-05      2.428e-05     
0.03621061     2.441789e-05   2.441789e-05  
0.03644676     2.455563e-05   2.455563e-05  
0.03668302     2.469321e-05   2.469321e-05  
0.03691941     2.483063e-05   2.483063e-05  
0.03715591     2.49679e-05    2.49679e-05   
0.03739266     2.510508e-05   2.510508e-05  
0.03762953     2.524211e-05   2.524211e-05  
0.03786652     2.537898e-05   2.537898e-05  
0.03810364     2.55157e-05    2.55157e-05   
0.03834087     2.565227e-05   2.565227e-05  
0.03857835     2.578875e-05   2.578875e-05  
0.03881595     2.592509e-05   2.592509e-05  
0.03905368     2.606127e-05   2.606127e-05  
0.03929152     2.61973e-05    2.61973e-05   
0.03952949     2.633318e-05   2.633318e-05  
0.03976758     2.64689e-05    2.64689e-05   
0.0400058      2.660448e-05   2.660448e-05  
0.04024414     2.673992e-05   2.673992e-05  
0.0404826      2.68752e-05    2.68752e-05   
0.04072119     2.701033e-05   2.701033e-05  
0.0409599      2.714532e-05   2.714532e-05  
0.04119873     2.728016e-05   2.728016e-05  
0.04143769     2.741485e-05   2.741485e-05  
0.04167678     2.75494e-05    2.75494e-05   
0.04191598     2.768381e-05   2.768381e-05  
0.04215532     2.781806e-05   2.781806e-05  
0.04239478     2.795218e-05   2.795218e-05  
0.04263436     2.808615e-05   2.808615e-05  
0.04287407     2.821998e-05   2.821998e-05  
0.0431139      2.835366e-05   2.835366e-05  
0.04335387     2.84872e-05    2.84872e-05   
0.04359395     2.86206e-05    2.86206e-05   
0.04383417     2.875386e-05   2.875386e-05  
0.04407451     2.888698e-05   2.888698e-05  
0.04431497     2.901996e-05   2.901996e-05  
0.04455557     2.91528e-05    2.91528e-05   
0.04479629     2.92855e-05    2.92855e-05   
0.04503714     2.941806e-05   2.941806e-05  
0.04527811     2.955048e-05   2.955048e-05  
0.04551922     2.968277e-05   2.968277e-05  
0.04576045     2.981491e-05   2.981491e-05  
0.04600181     2.994692e-05   2.994692e-05  
0.0462433      3.00788e-05    3.00788e-05   
0.04648491     3.021053e-05   3.021053e-05  
0.04672666     3.034214e-05   3.034214e-05  
0.04696854     3.047361e-05   3.047361e-05  
0.04721054     3.060494e-05   3.060494e-05  
0.04745267     3.073614e-05   3.073614e-05  
0.04769494     3.08672e-05    3.08672e-05   
0.04793733     3.099814e-05   3.099814e-05  
0.04817985     3.112894e-05   3.112894e-05  
0.04842237     3.125953e-05   3.125953e-05  
0.04866503     3.139e-05      3.139e-05     
0.04890781     3.152033e-05   3.152033e-05  
0.04915073     3.165054e-05   3.165054e-05  
0.04939377     3.178061e-05   3.178061e-05  
0.04963695     3.191056e-05   3.191056e-05  
0.04988026     3.204037e-05   3.204037e-05  
0.0501237      3.217006e-05   3.217006e-05  
0.05036727     3.229962e-05   3.229962e-05  
0.05061084     3.242898e-05   3.242898e-05  
0.05085454     3.255821e-05   3.255821e-05  
0.05109838     3.268732e-05   3.268732e-05  
0.05134235     3.281629e-05   3.281629e-05  
0.05158645     3.294515e-05   3.294515e-05  
0.05183068     3.307388e-05   3.307388e-05  
0.05207491     3.320241e-05   3.320241e-05  
0.05231928     3.333081e-05   3.333081e-05  
0.05256378     3.34591e-05    3.34591e-05   
0.05280842     3.358726e-05   3.358726e-05  
0.05305318     3.371529e-05   3.371529e-05  
0.05329809     3.384321e-05   3.384321e-05  
0.05354299     3.397093e-05   3.397093e-05  
0.05378803     3.409853e-05   3.409853e-05  
0.0540332      3.4226e-05     3.4226e-05    
0.0542785      3.435336e-05   3.435336e-05  
0.05452395     3.44806e-05    3.44806e-05   
0.05476939     3.460764e-05   3.460764e-05  
0.05501496     3.473457e-05   3.473457e-05  
0.05526068     3.486137e-05   3.486137e-05  
0.05550652     3.498806e-05   3.498806e-05  
0.05575237     3.511456e-05   3.511456e-05  
0.05599836     3.524094e-05   3.524094e-05  
0.05624448     3.53672e-05    3.53672e-05   
0.05649073     3.549335e-05   3.549335e-05  
0.05673699     3.561931e-05   3.561931e-05  
0.05698339     3.574515e-05   3.574515e-05  
0.05722992     3.587088e-05   3.587088e-05  
0.05747659     3.599649e-05   3.599649e-05  
0.05772325     3.612191e-05   3.612191e-05  
0.05797006     3.624722e-05   3.624722e-05  
0.058217       3.637242e-05   3.637242e-05  
0.05846409     3.649751e-05   3.649751e-05  
0.05871117     3.662241e-05   3.662241e-05  
0.05895839     3.674719e-05   3.674719e-05  
0.05920575     3.687187e-05   3.687187e-05  
0.05945325     3.699643e-05   3.699643e-05  
0.05970075     3.712081e-05   3.712081e-05  
0.05994838     3.724508e-05   3.724508e-05  
0.06019616     3.736924e-05   3.736924e-05  
0.06044394     3.749322e-05   3.749322e-05  
0.06069185     3.761709e-05   3.761709e-05  
0.06093991     3.774085e-05   3.774085e-05  
0.06118811     3.78645e-05    3.78645e-05   
0.0614363      3.798797e-05   3.798797e-05  
0.06168464     3.811133e-05   3.811133e-05  
0.06193312     3.823459e-05   3.823459e-05  
0.0621816      3.835767e-05   3.835767e-05  
0.06243022     3.848064e-05   3.848064e-05  
0.06267898     3.86035e-05    3.86035e-05   
0.06292774     3.872619e-05   3.872619e-05  
0.06317664     3.884877e-05   3.884877e-05  
0.06342568     3.897124e-05   3.897124e-05  
0.06367473     3.909354e-05   3.909354e-05  
0.06392391     3.921574e-05   3.921574e-05  
0.06417324     3.933783e-05   3.933783e-05  
0.06442257     3.945975e-05   3.945975e-05  
0.06467204     3.958156e-05   3.958156e-05  
0.06492166     3.970327e-05   3.970327e-05  
0.06517127     3.982481e-05   3.982481e-05  
0.06542103     3.994625e-05   3.994625e-05  
0.06567079     4.006751e-05   4.006751e-05  
0.06592069     4.018867e-05   4.018867e-05  
0.06617074     4.030973e-05   4.030973e-05  
0.06642078     4.043062e-05   4.043062e-05  
0.06667097     4.055141e-05   4.055141e-05  
0.06692131     4.06721e-05    4.06721e-05   
0.06717164     4.079262e-05   4.079262e-05  
0.06742212     4.091304e-05   4.091304e-05  
0.0676726      4.103329e-05   4.103329e-05  
0.06792322     4.115344e-05   4.115344e-05  
0.06817399     4.12735e-05    4.12735e-05   
0.06842476     4.139338e-05   4.139338e-05  
0.06867568     4.151317e-05   4.151317e-05  
0.0689266      4.163279e-05   4.163279e-05  
0.06917766     4.175232e-05   4.175232e-05  
0.06942887     4.187175e-05   4.187175e-05  
0.06968007     4.199101e-05   4.199101e-05  
0.06993143     4.211018e-05   4.211018e-05  
0.07018278     4.222918e-05   4.222918e-05  
0.07043429     4.234809e-05   4.234809e-05  
0.07068579     4.246683e-05   4.246683e-05  
0.07093744     4.258548e-05   4.258548e-05  
0.07118924     4.270404e-05   4.270404e-05  
0.07144103     4.282243e-05   4.282243e-05  
0.07169298     4.294073e-05   4.294073e-05  
0.07194492     4.305886e-05   4.305886e-05  
0.07219702     4.317691e-05   4.317691e-05  
0.07244911     4.329479e-05   4.329479e-05  
0.07270135     4.341258e-05   4.341258e-05  
0.0729536      4.353021e-05   4.353021e-05  
0.07320599     4.364775e-05   4.364775e-05  
0.07345838     4.376513e-05   4.376513e-05  
0.07371092     4.388242e-05   4.388242e-05  
0.07396361     4.399962e-05   4.399962e-05  
0.0742163      4.411666e-05   4.411666e-05  
0.07446914     4.423361e-05   4.423361e-05  
0.07472198     4.43504e-05    4.43504e-05   
0.07497497     4.44671e-05    4.44671e-05   
0.07522796     4.458365e-05   4.458365e-05  
0.07548111     4.47001e-05    4.47001e-05   
0.07573425     4.48164e-05    4.48164e-05   
0.07598754     4.493262e-05   4.493262e-05  
0.07624083     4.504867e-05   4.504867e-05  
0.07649428     4.516464e-05   4.516464e-05  
0.07674772     4.528046e-05   4.528046e-05  
0.07700132     4.539619e-05   4.539619e-05  
0.07725492     4.551176e-05   4.551176e-05  
0.07750866     4.562725e-05   4.562725e-05  
0.07776241     4.574258e-05   4.574258e-05  
0.07801631     4.585784e-05   4.585784e-05  
0.07827021     4.597293e-05   4.597293e-05  
0.07852427     4.608794e-05   4.608794e-05  
0.07877832     4.62028e-05    4.62028e-05   
0.07903253     4.631758e-05   4.631758e-05  
0.07928674     4.643221e-05   4.643221e-05  
0.07954094     4.654668e-05   4.654668e-05  
0.07979531     4.666107e-05   4.666107e-05  
0.08004967     4.677531e-05   4.677531e-05  
0.08030418     4.688947e-05   4.688947e-05  
0.0805587      4.700347e-05   4.700347e-05  
0.08081337     4.71174e-05    4.71174e-05   
0.08106804     4.723118e-05   4.723118e-05  
0.08132286     4.734487e-05   4.734487e-05  
0.08157769     4.745842e-05   4.745842e-05  
0.08183267     4.757189e-05   4.757189e-05  
0.08208765     4.768521e-05   4.768521e-05  
0.08234278     4.779845e-05   4.779845e-05  
0.08259792     4.791154e-05   4.791154e-05  
0.08285321     4.802455e-05   4.802455e-05  
0.0831085      4.813742e-05   4.813742e-05  
0.08336379     4.825014e-05   4.825014e-05  
0.08361924     4.836278e-05   4.836278e-05  
0.08387469     4.847528e-05   4.847528e-05  
0.0841303      4.85877e-05    4.85877e-05   
0.0843859      4.869997e-05   4.869997e-05  
0.08464166     4.881217e-05   4.881217e-05  
0.08489743     4.892422e-05   4.892422e-05  
0.08515335     4.90362e-05    4.90362e-05   
0.08540927     4.914803e-05   4.914803e-05  
0.08566519     4.925972e-05   4.925972e-05  
0.08592127     4.937133e-05   4.937133e-05  
0.08617734     4.948281e-05   4.948281e-05  
0.08643358     4.95942e-05    4.95942e-05   
0.08668982     4.970546e-05   4.970546e-05  
0.08694605     4.981657e-05   4.981657e-05  
0.08720245     4.99276e-05    4.99276e-05   
0.08745885     5.00385e-05    5.00385e-05   
0.0877154      5.014932e-05   5.014932e-05  
0.08797196     5.026001e-05   5.026001e-05  
0.08822851     5.037055e-05   5.037055e-05  
0.08848523     5.048102e-05   5.048102e-05  
0.08874194     5.059135e-05   5.059135e-05  
0.08899882     5.070161e-05   5.070161e-05  
0.0892557      5.081172e-05   5.081172e-05  
0.08951257     5.09217e-05    5.09217e-05   
0.08976961     5.103161e-05   5.103161e-05  
0.09002664     5.114138e-05   5.114138e-05  
0.09028384     5.125108e-05   5.125108e-05  
0.09054104     5.136065e-05   5.136065e-05  
0.09079824     5.147007e-05   5.147007e-05  
0.0910556      5.157942e-05   5.157942e-05  
0.09131296     5.168864e-05   5.168864e-05  
0.09157032     5.179772e-05   5.179772e-05  
0.09182784     5.190674e-05   5.190674e-05  
0.09208536     5.201561e-05   5.201561e-05  
0.09234304     5.212442e-05   5.212442e-05  
0.09260073     5.22331e-05    5.22331e-05   
0.09285841     5.234164e-05   5.234164e-05  
0.09311626     5.245011e-05   5.245011e-05  
0.09337411     5.255844e-05   5.255844e-05  
0.09363196     5.266664e-05   5.266664e-05  
0.09388997     5.277478e-05   5.277478e-05  
0.09414798     5.288278e-05   5.288278e-05  
0.09440599     5.299065e-05   5.299065e-05  
0.09466417     5.309845e-05   5.309845e-05  
0.09492234     5.320612e-05   5.320612e-05  
0.09518052     5.331366e-05   5.331366e-05  
0.09543886     5.342113e-05   5.342113e-05  
0.0956972      5.352847e-05   5.352847e-05  
0.09595554     5.363568e-05   5.363568e-05  
0.09621405     5.374283e-05   5.374283e-05  
0.09647255     5.384984e-05   5.384984e-05  
0.09673106     5.395672e-05   5.395672e-05  
0.09698973     5.406354e-05   5.406354e-05  
0.0972484      5.417023e-05   5.417023e-05  
0.09750724     5.427686e-05   5.427686e-05  
0.09776608     5.438336e-05   5.438336e-05  
0.09802491     5.448972e-05   5.448972e-05  
0.09828375     5.459596e-05   5.459596e-05  
0.09854276     5.470214e-05   5.470214e-05  
0.09880176     5.480819e-05   5.480819e-05  
0.09906093     5.491417e-05   5.491417e-05  
0.0993201      5.502003e-05   5.502003e-05  
0.09957928     5.512576e-05   5.512576e-05  
0.09983845     5.523136e-05   5.523136e-05  
0.1000978      5.533691e-05   5.533691e-05  
0.1003571      5.544232e-05   5.544232e-05  
0.1006165      5.554761e-05   5.554761e-05  
0.100876       5.565284e-05   5.565284e-05  
0.1011355      5.575794e-05   5.575794e-05  
0.101395       5.586292e-05   5.586292e-05  
0.1016547      5.596784e-05   5.596784e-05  
0.1019143      5.607263e-05   5.607263e-05  
0.102174       5.61773e-05    5.61773e-05   
0.1024337      5.628184e-05   5.628184e-05  
0.1026936      5.638633e-05   5.638633e-05  
0.1029534      5.649069e-05   5.649069e-05  
0.1032132      5.659492e-05   5.659492e-05  
0.1034733      5.66991e-05    5.66991e-05   
0.1037333      5.680316e-05   5.680316e-05  
0.1039933      5.690709e-05   5.690709e-05  
0.1042535      5.701097e-05   5.701097e-05  
0.1045137      5.711472e-05   5.711472e-05  
0.1047739      5.721835e-05   5.721835e-05  
0.1050342      5.732192e-05   5.732192e-05  
0.1052946      5.742538e-05   5.742538e-05  
0.1055549      5.752871e-05   5.752871e-05  
0.1058153      5.763192e-05   5.763192e-05  
0.1060758      5.773507e-05   5.773507e-05  
0.1063364      5.783811e-05   5.783811e-05  
0.1065969      5.794102e-05   5.794102e-05  
0.1068576      5.804388e-05   5.804388e-05  
0.1071183      5.814662e-05   5.814662e-05  
0.107379       5.824923e-05   5.824923e-05  
0.1076397      5.835173e-05   5.835173e-05  
0.1079006      5.845418e-05   5.845418e-05  
0.1081615      5.85565e-05    5.85565e-05   
0.1084223      5.865871e-05   5.865871e-05  
0.1086832      5.87608e-05    5.87608e-05   
0.1089443      5.886284e-05   5.886284e-05  
0.1092053      5.896475e-05   5.896475e-05  
0.1094664      5.906655e-05   5.906655e-05  
0.1097274      5.916823e-05   5.916823e-05  
0.1099887      5.926986e-05   5.926986e-05  
0.1102499      5.937138e-05   5.937138e-05  
0.1105111      5.947277e-05   5.947277e-05  
0.1107723      5.957405e-05   5.957405e-05  
0.1110337      5.967528e-05   5.967528e-05  
0.1112951      5.977639e-05   5.977639e-05  
0.1115565      5.987738e-05   5.987738e-05  
0.1118179      5.997826e-05   5.997826e-05  
0.1120795      6.007909e-05   6.007909e-05  
0.1123411      6.017981e-05   6.017981e-05  
0.1126027      6.028041e-05   6.028041e-05  
0.1128643      6.038089e-05   6.038089e-05  
0.1131258      6.048126e-05   6.048126e-05  
0.1133876      6.058158e-05   6.058158e-05  
0.1136494      6.068179e-05   6.068179e-05  
0.1139111      6.078188e-05   6.078188e-05  
0.1141729      6.088186e-05   6.088186e-05  
0.1144348      6.098179e-05   6.098179e-05  
0.1146967      6.108161e-05   6.108161e-05  
0.1149587      6.118131e-05   6.118131e-05  
0.1152206      6.12809e-05    6.12809e-05   
0.1154827      6.138045e-05   6.138045e-05  
0.1157448      6.147988e-05   6.147988e-05  
0.1160069      6.15792e-05    6.15792e-05   
0.116269       6.167841e-05   6.167841e-05  
0.1165313      6.177758e-05   6.177758e-05  
0.1167936      6.187663e-05   6.187663e-05  
0.1170559      6.197557e-05   6.197557e-05  
0.1173182      6.20744e-05    6.20744e-05   
0.1175805      6.217311e-05   6.217311e-05  
0.117843       6.227179e-05   6.227179e-05  
0.1181054      6.237035e-05   6.237035e-05  
0.1183679      6.24688e-05    6.24688e-05   
0.1186304      6.256714e-05   6.256714e-05  
0.118893       6.266544e-05   6.266544e-05  
0.1191557      6.276363e-05   6.276363e-05  
0.1194183      6.286171e-05   6.286171e-05  
0.119681       6.295968e-05   6.295968e-05  
0.1199438      6.305761e-05   6.305761e-05  
0.1202066      6.315543e-05   6.315543e-05  
0.1204695      6.325314e-05   6.325314e-05  
0.1207323      6.335074e-05   6.335074e-05  
0.1209951      6.344823e-05   6.344823e-05  
0.1212582      6.354569e-05   6.354569e-05  
0.1215212      6.364303e-05   6.364303e-05  
0.1217842      6.374027e-05   6.374027e-05  
0.1220472      6.38374e-05    6.38374e-05   
0.1223104      6.393449e-05   6.393449e-05  
0.1225736      6.403147e-05   6.403147e-05  
0.1228368      6.412834e-05   6.412834e-05  
0.1231         6.422511e-05   6.422511e-05  
0.1233634      6.432184e-05   6.432184e-05  
0.1236268      6.441846e-05   6.441846e-05  
0.1238901      6.451498e-05   6.451498e-05  
0.1241535      6.461139e-05   6.461139e-05  
0.1244171      6.470776e-05   6.470776e-05  
0.1246807      6.480403e-05   6.480403e-05  
0.1249442      6.490019e-05   6.490019e-05  
0.1252078      6.499625e-05   6.499625e-05  
0.1254714      6.50922e-05    6.50922e-05   
0.1257351      6.518812e-05   6.518812e-05  
0.1259989      6.528393e-05   6.528393e-05  
0.1262626      6.537963e-05   6.537963e-05  
0.1265264      6.547523e-05   6.547523e-05  
0.1267903      6.55708e-05    6.55708e-05   
0.1270542      6.566626e-05   6.566626e-05  
0.1273182      6.576162e-05   6.576162e-05  
0.1275821      6.585687e-05   6.585687e-05  
0.1278461      6.595202e-05   6.595202e-05  
0.1281102      6.604714e-05   6.604714e-05  
0.1283743      6.614215e-05   6.614215e-05  
0.1286384      6.623706e-05   6.623706e-05  
0.1289026      6.633187e-05   6.633187e-05  
0.1291667      6.642657e-05   6.642657e-05  
0.129431       6.652125e-05   6.652125e-05  
0.1296953      6.661582e-05   6.661582e-05  
0.1299596      6.671028e-05   6.671028e-05  
0.130224       6.680465e-05   6.680465e-05  
0.1304885      6.689898e-05   6.689898e-05  
0.130753       6.699322e-05   6.699322e-05  
0.1310175      6.708735e-05   6.708735e-05  
0.131282       6.718138e-05   6.718138e-05  
0.1315465      6.727531e-05   6.727531e-05  
0.1318112      6.73692e-05    6.73692e-05   
0.1320759      6.7463e-05     6.7463e-05    
0.1323406      6.75567e-05    6.75567e-05   
0.1326054      6.765036e-05   6.765036e-05  
0.1328703      6.774393e-05   6.774393e-05  
0.1331352      6.78374e-05    6.78374e-05   
0.1334003      6.793083e-05   6.793083e-05  
0.1336654      6.802417e-05   6.802417e-05  
0.1339304      6.81174e-05    6.81174e-05   
0.1341955      6.821054e-05   6.821054e-05  
0.1344608      6.830365e-05   6.830365e-05  
0.134726       6.839666e-05   6.839666e-05  
0.1349913      6.848957e-05   6.848957e-05  
0.1352566      6.858238e-05   6.858238e-05  
0.1355218      6.867509e-05   6.867509e-05  
0.1357873      6.876778e-05   6.876778e-05  
0.1360528      6.886037e-05   6.886037e-05  
0.1363182      6.895286e-05   6.895286e-05  
0.1365837      6.904525e-05   6.904525e-05  
0.1368492      6.913755e-05   6.913755e-05  
0.1371148      6.922981e-05   6.922981e-05  
0.1373805      6.932198e-05   6.932198e-05  
0.1376461      6.941406e-05   6.941406e-05  
0.137912       6.95061e-05    6.95061e-05   
0.1381778      6.959805e-05   6.959805e-05  
0.1384437      6.968991e-05   6.968991e-05  
0.1387095      6.978166e-05   6.978166e-05  
0.1389756      6.987339e-05   6.987339e-05  
0.1392416      6.996503e-05   6.996503e-05  
0.1395077      7.005657e-05   7.005657e-05  
0.1397737      7.014801e-05   7.014801e-05  
0.1400399      7.023943e-05   7.023943e-05  
0.1403062      7.033075e-05   7.033075e-05  
0.1405724      7.042198e-05   7.042198e-05  
0.1408387      7.051311e-05   7.051311e-05  
0.1411051      7.060422e-05   7.060422e-05  
0.1413716      7.069524e-05   7.069524e-05  
0.141638       7.078615e-05   7.078615e-05  
0.1419044      7.087698e-05   7.087698e-05  
0.1421711      7.096778e-05   7.096778e-05  
0.1424377      7.105849e-05   7.105849e-05  
0.1427044      7.11491e-05    7.11491e-05   
0.142971       7.123962e-05   7.123962e-05  
0.1432378      7.133012e-05   7.133012e-05  
0.1435047      7.142052e-05   7.142052e-05  
0.1437715      7.151083e-05   7.151083e-05  
0.1440383      7.160105e-05   7.160105e-05  
0.1443054      7.169124e-05   7.169124e-05  
0.1445724      7.178134e-05   7.178134e-05  
0.1448395      7.187135e-05   7.187135e-05  
0.1451065      7.196127e-05   7.196127e-05  
0.1453735      7.205109e-05   7.205109e-05  
0.1456408      7.214089e-05   7.214089e-05  
0.145908       7.22306e-05    7.22306e-05   
0.1461752      7.232022e-05   7.232022e-05  
0.1464425      7.240975e-05   7.240975e-05  
0.1467099      7.249926e-05   7.249926e-05  
0.1469774      7.258867e-05   7.258867e-05  
0.1472448      7.2678e-05     7.2678e-05    
0.1475123      7.276723e-05   7.276723e-05  
0.1477797      7.285638e-05   7.285638e-05  
0.1480473      7.29455e-05    7.29455e-05   
0.148315       7.303453e-05   7.303453e-05  
0.1485826      7.312348e-05   7.312348e-05  
0.1488503      7.321233e-05   7.321233e-05  
0.1491181      7.330116e-05   7.330116e-05  
0.149386       7.33899e-05    7.33899e-05   
0.1496538      7.347856e-05   7.347856e-05  
0.1499217      7.356712e-05   7.356712e-05  
0.1501895      7.36556e-05    7.36556e-05   
0.1504576      7.374405e-05   7.374405e-05  
0.1507256      7.383242e-05   7.383242e-05  
0.1509937      7.39207e-05    7.39207e-05   
0.1512617      7.400889e-05   7.400889e-05  
0.1515298      7.409699e-05   7.409699e-05  
0.151798       7.418508e-05   7.418508e-05  
0.1520663      7.427307e-05   7.427307e-05  
0.1523346      7.436098e-05   7.436098e-05  
0.1526028      7.44488e-05    7.44488e-05   
0.1528713      7.45366e-05    7.45366e-05   
0.1531398      7.462431e-05   7.462431e-05  
0.1534082      7.471194e-05   7.471194e-05  
0.1536767      7.479948e-05   7.479948e-05  
0.1539452      7.488694e-05   7.488694e-05  
0.1542138      7.497437e-05   7.497437e-05  
0.1544825      7.506172e-05   7.506172e-05  
0.1547512      7.514898e-05   7.514898e-05  
0.1550199      7.523616e-05   7.523616e-05  
0.1552888      7.532332e-05   7.532332e-05  
0.1555576      7.541039e-05   7.541039e-05  
0.1558265      7.549738e-05   7.549738e-05  
0.1560954      7.558428e-05   7.558428e-05  
0.1563645      7.567117e-05   7.567117e-05  
0.1566336      7.575797e-05   7.575797e-05  
0.1569027      7.584468e-05   7.584468e-05  
0.1571718      7.593131e-05   7.593131e-05  