# Probe 0 (0 0 0)
# Probe 1 (0 0.011 0)
# Time         0              1             
0              0              0             
1.199999e-06   0              0             
2.639997e-06   0              0             
4.367992e-06   0              0             
6.441588e-06   0              0             
8.929898e-06   0              0             
1.191586e-05   0              0             
1.549901e-05   0              0             
1.979876e-05   0              0             
2.495847e-05   0              0             
3.115011e-05   0              0             
3.858006e-05   0              0             
4.7496e-05     0              0             
5.819498e-05   0              0             
7.103375e-05   0              0             
8.643988e-05   0              0             
0.0001049271   0              0             
0.0001271112   0              0             
0.0001537313   0              0             
0.0001856744   0              0             
0.0002240038   0              0             
0.0002699982   0              0             
0.0003251865   0              0             
0.0003914125   0              0             
0.0004698809   0              0             
0.0005610194   0              0             
0.0006652647   0              0             
0.0007830879   0              0             
0.0009149814   0              0             
0.001061041    0              0             
0.001212372    0              0             
0.001368634    0              0             
0.001529483    0              0             
0.001694212    0              0             
0.001861766    0              0             
0.002032011    0              0             
0.002204857    0              0             
0.002380199    0              0             
0.002558047    0              0             
0.00273828     0              0             
0.002920895    0              0             
0.003105958    0              0             
0.003293678    0              0             
0.003484059    0              0             
0.003675617    0              0             
0.003868065    0              0             
0.004061413    0              0             
0.004255671    0              0             
0.004450769    0              0             
0.004646715    0              0             
0.004843518    0              0             
0.005041107    0              0             
0.005239408    0              0             
0.005438506    0              0             
0.005638329    0              0             
0.0058388      0              0             
0.006040006    0              0             
0.00624187     0              0             
0.006444312    0              0             
0.006647422    0              0             
0.006851118    0              0             
0.007055405    0              0             
0.007260287    0              0             
0.00746568     0              0             
0.007671675    0              0             
0.007878189    0              0             
0.008085311    0              0             
0.008292958    0              0             
0.00850122     0              0             
0.008710013    0              0             
0.00891934     0              0             
0.009129113    0              0             
0.009339336    0              0             
0.009550011    0              0             
0.009761139    0              0             
0.009972722    0              0             
0.01018467     0              0             
0.01039708     0              0             
0.01060986     0              0             
0.0108231      0              0             
0.01103672     0              0             
0.0112507      0              0             
0.01146507     0              0             
0.01167971     0              0             
0.01189474     0              0             
0.01211005     0              0             
0.01232574     0              0             
0.01254171     0              0             
0.01275798     0              0             
0.01297453     0              0             
0.01319147     0              0             
0.01340869     0              0             
0.01362621     0              0             
0.01384403     0              0             
0.01406213     0              0             
0.01428053     0              0             
0.01449913     0              0             
0.01471802     0              0             
0.0149372      0              0             
0.01515669     0              0             
0.01537637     0              0             
0.01559636     0              0             
0.01581664     0              0             
0.01603713     0              0             
0.01625791     0              0             
0.016479       0              0             
0.01670029     0              0             
0.01692179     0              0             
0.01714358     0              0             
0.01736559     0              0             
0.01758779     0              0             
0.01781031     0              0             
0.01803303     0              0             
0.01825596     0              0             
0.01847909     0              0             
0.01870253     0              0             
0.01892618     0              0             
0.01915004     0              0             
0.01937411     0              0             
0.01959839     0              0             
0.01982288     0              0             
0.02004757     0              0             
0.02027248     0              0             
0.0204976      0              0             
0.02072293     0              0             
0.02094847     0              0             
0.02117423     0              0             
0.02140019     0              0             
0.02162637     0              0             
0.02185277     0              0             
0.02207927     0              0             
0.02230599     0              0             
0.02253292     0              0             
0.02276007     0              0             
0.02298733     0              0             
0.0232148      0              0             
0.02344249     0              0             
0.02367029     0              0             
0.02389831     0              0             
0.02412655     0              0             
0.0243549      0              0             
0.02458346     0              0             
0.02481214     0              0             
0.02504103     0              0             
0.02527015     0              0             
0.02549938     0              0             
0.02572883     0              0             
0.02595839     0              0             
0.02618817     0              0             
0.02641806     0              0             
0.02664818     0              0             
0.02687841     0              0             
0.02710886     0              0             
0.02733943     0              0             
0.02757011     0              0             
0.02780101     0              0             
0.02803203     0              0             
0.02826327     0              0             
0.02849463     0              0             
0.0287261      0              0             
0.0289578      0              0             
0.02918961     0              0             
0.02942154     0              0             
0.02965369     0              0             
0.02988596     0              0             
0.03011835     0              0             
0.03035096     0              0             
0.03058369     0              0             
0.03081654     0              0             
0.0310495      0              0             
0.03128269     0              0             
0.031516       0              0             
0.03174942     0              0             
0.03198296     0              0             
0.03221662     0              0             
0.0324504      0              0             
0.03268441     0              0             
0.03291853     0              0             
0.03315278     0              0             
0.03338714     0              0             
0.03362162     0              0             
0.03385633     0              0             
0.03409116     0              0             
0.03432612     0              0             
0.03456119     0              0             
0.03479637     0              0             
0.03503168     0              0             
0.03526723     0              0             
0.03550289     0              0             
0.03573868     0              0             
0.03597458     0              0             
0.03621061     0              0             
0.03644676     0              0             
0.03668302     0              0             
0.03691941     0              0             
0.03715591     0              0             
0.03739266     0              0             
0.03762953     0              0             
0.03786652     0              0             
0.03810364     0              0             
0.03834087     0              0             
0.03857835     0              0             
0.03881595     0              0             
0.03905368     0              0             
0.03929152     0              0             
0.03952949     0              0             
0.03976758     0              0             
0.0400058      0              0             
0.04024414     0              0             
0.0404826      0              0             
0.04072119     0              0             
0.0409599      0              0             
0.04119873     0              0             
0.04143769     0              0             
0.04167678     0              0             
0.04191598     0              0             
0.04215532     0              0             
0.04239478     0              0             
0.04263436     0              0             
0.04287407     0              0             
0.0431139      0              0             
0.04335387     0              0             
0.04359395     0              0             
0.04383417     0              0             
0.04407451     0              0             
0.04431497     0              0             
0.04455557     0              0             
0.04479629     0              0             
0.04503714     0              0             
0.04527811     0              0             
0.04551922     0              0             
0.04576045     0              0             
0.04600181     0              0             
0.0462433      0              0             
0.04648491     0              0             
0.04672666     0              0             
0.04696854     0              0             
0.04721054     0              0             
0.04745267     0              0             
0.04769494     0              0             
0.04793733     0              0             
0.04817985     0              0             
0.04842237     0              0             
0.04866503     0              0             
0.04890781     0              0             
0.04915073     0              0             
0.04939377     0              0             
0.04963695     0              0             
0.04988026     0              0             
0.0501237      0              0             
0.05036727     0              0             
0.05061084     0              0             
0.05085454     0              0             
0.05109838     0              0             
0.05134235     0              0             
0.05158645     0              0             
0.05183068     0              0             
0.05207491     0              0             
0.05231928     0              0             
0.05256378     0              0             
0.05280842     0              0             
0.05305318     0              0             
0.05329809     0              0             
0.05354299     0              0             
0.05378803     0              0             
0.0540332      0              0             
0.0542785      0              0             
0.05452395     0              0             
0.05476939     0              0             
0.05501496     0              0             
0.05526068     0              0             
0.05550652     0              0             
0.05575237     0              0             
0.05599836     0              0             
0.05624448     0              0             
0.05649073     0              0             
0.05673699     0              0             
0.05698339     0              0             
0.05722992     0              0             
0.05747659     0              0             
0.05772325     0              0             
0.05797006     0              0             
0.058217       0              0             
0.05846409     0              0             
0.05871117     0              0             
0.05895839     0              0             
0.05920575     0              0             
0.05945325     0              0             
0.05970075     0              0             
0.05994838     0              0             
0.06019616     0              0             
0.06044394     0              0             
0.06069185     0              0             
0.06093991     0              0             
0.06118811     0              0             
0.0614363      0              0             
0.06168464     0              0             
0.06193312     0              0             
0.0621816      0              0             
0.06243022     0              0             
0.06267898     0              0             
0.06292774     0              0             
0.06317664     0              0             
0.06342568     0              0             
0.06367473     0              0             
0.06392391     0              0             
0.06417324     0              0             
0.06442257     0              0             
0.06467204     0              0             
0.06492166     0              0             
0.06517127     0              0             
0.06542103     0              0             
0.06567079     0              0             
0.06592069     0              0             
0.06617074     0              0             
0.06642078     0              0             
0.06667097     0              0             
0.06692131     0              0             
0.06717164     0              0             
0.06742212     0              0             
0.0676726      0              0             
0.06792322     0              0             
0.06817399     0              0             
0.06842476     0              0             
0.06867568     0              0             
0.0689266      0              0             
0.06917766     0              0             
0.06942887     0              0             
0.06968007     0              0             
0.06993143     0              0             
0.07018278     0              0             
0.07043429     0              0             
0.07068579     0              0             
0.07093744     0              0             
0.07118924     0              0             
0.07144103     0              0             
0.07169298     0              0             
0.07194492     0              0             
0.07219702     0              0             
0.07244911     0              0             
0.07270135     0              0             
0.0729536      0              0             
0.07320599     0              0             
0.07345838     0              0             
0.07371092     0              0             
0.07396361     0              0             
0.0742163      0              0             
0.07446914     0              0             
0.07472198     0              0             
0.07497497     0              0             
0.07522796     0              0             
0.07548111     0              0             
0.07573425     0              0             
0.07598754     0              0             
0.07624083     0              0             
0.07649428     0              0             
0.07674772     0              0             
0.07700132     0              0             
0.07725492     0              0             
0.07750866     0              0             
0.07776241     0              0             
0.07801631     0              0             
0.07827021     0              0             
0.07852427     0              0             
0.07877832     0              0             
0.07903253     0              0             
0.07928674     0              0             
0.07954094     0              0             
0.07979531     0              0             
0.08004967     0              0             
0.08030418     0              0             
0.0805587      0              0             
0.08081337     0              0             
0.08106804     0              0             
0.08132286     0              0             
0.08157769     0              0             
0.08183267     0              0             
0.08208765     0              0             
0.08234278     0              0             
0.08259792     0              0             
0.08285321     0              0             
0.0831085      0              0             
0.08336379     0              0             
0.08361924     0              0             
0.08387469     0              0             
0.0841303      0              0             
0.0843859      0              0             
0.08464166     0              0             
0.08489743     0              0             
0.08515335     0              0             
0.08540927     0              0             
0.08566519     0              0             
0.08592127     0              0             
0.08617734     0              0             
0.08643358     0              0             
0.08668982     0              0             
0.08694605     0              0             
0.08720245     0              0             
0.08745885     0              0             
0.0877154      0              0             
0.08797196     0              0             
0.08822851     0              0             
0.08848523     0              0             
0.08874194     0              0             
0.08899882     0              0             
0.0892557      0              0             
0.08951257     0              0             
0.08976961     0              0             
0.09002664     0              0             
0.09028384     0              0             
0.09054104     0              0             
0.09079824     0              0             
0.0910556      0              0             
0.09131296     0              0             
0.09157032     0              0             
0.09182784     0              0             
0.09208536     0              0             
0.09234304     0              0             
0.09260073     0              0             
0.09285841     0              0             
0.09311626     0              0             
0.09337411     0              0             
0.09363196     0              0             
0.09388997     0              0             
0.09414798     0              0             
0.09440599     0              0             
0.09466417     0              0             
0.09492234     0              0             
0.09518052     0              0             
0.09543886     0              0             
0.0956972      0              0             
0.09595554     0              0             
0.09621405     0              0             
0.09647255     0              0             
0.09673106     0              0             
0.09698973     0              0             
0.0972484      0              0             
0.09750724     0              0             
0.09776608     0              0             
0.09802491     0              0             
0.09828375     0              0             
0.09854276     0              0             
0.09880176     0              0             
0.09906093     0              0             
0.0993201      0              0             
0.09957928     0              0             
0.09983845     0              0             
0.1000978      0              0             
0.1003571      0              0             
0.1006165      0              0             
0.100876       0              0             
0.1011355      0              0             
0.101395       0              0             
0.1016547      0              0             
0.1019143      0              0             
0.102174       0              0             
0.1024337      0              0             
0.1026936      0              0             
0.1029534      0              0             
0.1032132      0              0             
0.1034733      0              0             
0.1037333      0              0             
0.1039933      0              0             
0.1042535      0              0             
0.1045137      0              0             
0.1047739      0              0             
0.1050342      0              0             
0.1052946      0              0             
0.1055549      0              0             
0.1058153      0              0             
0.1060758      0              0             
0.1063364      0              0             
0.1065969      0              0             
0.1068576      0              0             
0.1071183      0              0             
0.107379       0              0             
0.1076397      0              0             
0.1079006      0              0             
0.1081615      0              0             
0.1084223      0              0             
0.1086832      0              0             
0.1089443      0              0             
0.1092053      0              0             
0.1094664      0              0             
0.1097274      0              0             
0.1099887      0              0             
0.1102499      0              0             
0.1105111      0              0             
0.1107723      0              0             
0.1110337      0              0             
0.1112951      0              0             
0.1115565      0              0             
0.1118179      0              0             
0.1120795      0              0             
0.1123411      0              0             
0.1126027      0              0             
0.1128643      0              0             
0.1131258      0              0             
0.1133876      0              0             
0.1136494      0              0             
0.1139111      0              0             
0.1141729      0              0             
0.1144348      0              0             
0.1146967      0              0             
0.1149587      0              0             
0.1152206      0              0             
0.1154827      0              0             
0.1157448      0              0             
0.1160069      0              0             
0.116269       0              0             
0.1165313      0              0             
0.1167936      0              0             
0.1170559      0              0             
0.1173182      0              0             
0.1175805      0              0             
0.117843       0              0             
0.1181054      0              0             
0.1183679      0              0             
0.1186304      0              0             
0.118893       0              0             
0.1191557      0              0             
0.1194183      0              0             
0.119681       0              0             
0.1199438      0              0             
0.1202066      0              0             
0.1204695      0              0             
0.1207323      0              0             
0.1209951      0              0             
0.1212582      0              0             
0.1215212      0              0             
0.1217842      0              0             
0.1220472      0              0             
0.1223104      0              0             
0.1225736      0              0             
0.1228368      0              0             
0.1231         0              0             
0.1233634      0              0             
0.1236268      0              0             
0.1238901      0              0             
0.1241535      0              0             
0.1244171      0              0             
0.1246807      0              0             
0.1249442      0              0             
0.1252078      0              0             
0.1254714      0              0             
0.1257351      0              0             
0.1259989      0              0             
0.1262626      0              0             
0.1265264      0              0             
0.1267903      0              0             
0.1270542      0              0             
0.1273182      0              0             
0.1275821      0              0             
0.1278461      0              0             
0.1281102      0              0             
0.1283743      0              0             
0.1286384      0              0             
0.1289026      0              0             
0.1291667      0              0             
0.129431       0              0             
0.1296953      0              0             
0.1299596      0              0             
0.130224       0              0             
0.1304885      0              0             
0.130753       0              0             
0.1310175      0              0             
0.131282       0              0             
0.1315465      0              0             
0.1318112      0              0             
0.1320759      0              0             
0.1323406      0              0             
0.1326054      0              0             
0.1328703      0              0             
0.1331352      0              0             
0.1334003      0              0             
0.1336654      0              0             
0.1339304      0              0             
0.1341955      0              0             
0.1344608      0              0             
0.134726       0              0             
0.1349913      0              0             
0.1352566      0              0             
0.1355218      0              0             
0.1357873      0              0             
0.1360528      0              0             
0.1363182      0              0             
0.1365837      0              0             
0.1368492      0              0             
0.1371148      0              0             
0.1373805      0              0             
0.1376461      0              0             
0.137912       0              0             
0.1381778      0              0             
0.1384437      0              0             
0.1387095      0              0             
0.1389756      0              0             
0.1392416      0              0             
0.1395077      0              0             
0.1397737      0              0             
0.1400399      0              0             
0.1403062      0              0             
0.1405724      0              0             
0.1408387      0              0             
0.1411051      0              0             
0.1413716      0              0             
0.141638       0              0             
0.1419044      0              0             
0.1421711      0              0             
0.1424377      0              0             
0.1427044      0              0             
0.142971       0              0             
0.1432378      0              0             
0.1435047      0              0             
0.1437715      0              0             
0.1440383      0              0             
0.1443054      0              0             
0.1445724      0              0             
0.1448395      0              0             
0.1451065      0              0             
0.1453735      0              0             
0.1456408      0              0             
0.145908       0              0             
0.1461752      0              0             
0.1464425      0              0             
0.1467099      0              0             
0.1469774      0              0             
0.1472448      0              0             
0.1475123      0              0             
0.1477797      0              0             
0.1480473      0              0             
0.148315       0              0             
0.1485826      0              0             
0.1488503      0              0             
0.1491181      0              0             
0.149386       0              0             
0.1496538      0              0             
0.1499217      0              0             
0.1501895      0              0             
0.1504576      0              0             
0.1507256      0              0             
0.1509937      0              0             
0.1512617      0              0             
0.1515298      0              0             
0.151798       0              0             
0.1520663      0              0             
0.1523346      0              0             
0.1526028      0              0             
0.1528713      0              0             
0.1531398      0              0             
0.1534082      0              0             
0.1536767      0              0             
0.1539452      0              0             
0.1542138      0              0             
0.1544825      0              0             
0.1547512      0              0             
0.1550199      0              0             
0.1552888      0              0             
0.1555576      0              0             
0.1558265      0              0             
0.1560954      0              0             
0.1563645      0              0             
0.1566336      0              0             
0.1569027      0              0             
0.1571718      0              0             