# Probe 0 (0 0 0)
# Probe 1 (0 0.011 0)
# Time         0              1             
0              0              0             
1.199999e-06   0.0001705945   0.0001705945  
2.639997e-06   0.0001705921   0.0001705921  
4.367992e-06   0.0001705893   0.0001705893  
6.441588e-06   0.0001705859   0.0001705859  
8.929898e-06   0.0001705818   0.0001705818  
1.191586e-05   0.0001705769   0.0001705769  
1.549901e-05   0.000170571    0.000170571   
1.979876e-05   0.0001705639   0.0001705639  
2.495847e-05   0.0001705554   0.0001705554  
3.115011e-05   0.0001705453   0.0001705453  
3.858006e-05   0.0001705331   0.0001705331  
4.7496e-05     0.0001705184   0.0001705184  
5.819498e-05   0.0001705008   0.0001705008  
7.103375e-05   0.0001704797   0.0001704797  
8.643988e-05   0.0001704544   0.0001704544  
0.0001049271   0.0001704241   0.0001704241  
0.0001271112   0.0001703877   0.0001703877  
0.0001537313   0.000170344    0.000170344   
0.0001856744   0.0001702917   0.0001702917  
0.0002240038   0.0001702289   0.0001702289  
0.0002699982   0.0001701536   0.0001701536  
0.0003251865   0.0001700634   0.0001700634  
0.0003914125   0.0001699552   0.0001699552  
0.0004698809   0.0001698273   0.0001698273  
0.0005610194   0.0001696789   0.0001696789  
0.0006652647   0.0001695095   0.0001695095  
0.0007830879   0.0001693184   0.0001693184  
0.0009149814   0.0001691051   0.0001691051  
0.001061041    0.0001688695   0.0001688695  
0.001212372    0.000168626    0.000168626   
0.001368634    0.0001683754   0.0001683754  
0.001529483    0.0001681182   0.0001681182  
0.001694212    0.0001678556   0.0001678556  
0.001861766    0.0001675893   0.0001675893  
0.002032011    0.0001673196   0.0001673196  
0.002204857    0.0001670467   0.0001670467  
0.002380199    0.0001667708   0.0001667708  
0.002558047    0.0001664919   0.0001664919  
0.00273828     0.0001662101   0.0001662101  
0.002920895    0.0001659257   0.0001659257  
0.003105958    0.0001656384   0.0001656384  
0.003293678    0.000165348    0.000165348   
0.003484059    0.0001650546   0.0001650546  
0.003675617    0.0001647604   0.0001647604  
0.003868065    0.0001644659   0.0001644659  
0.004061413    0.0001641711   0.0001641711  
0.004255671    0.0001638759   0.0001638759  
0.004450769    0.0001635806   0.0001635806  
0.004646715    0.0001632851   0.0001632851  
0.004843518    0.0001629894   0.0001629894  
0.005041107    0.0001626935   0.0001626935  
0.005239408    0.0001623977   0.0001623977  
0.005438506    0.0001621018   0.0001621018  
0.005638329    0.000161806    0.000161806   
0.0058388      0.0001615103   0.0001615103  
0.006040006    0.0001612145   0.0001612145  
0.00624187     0.000160919    0.000160919   
0.006444312    0.0001606237   0.0001606237  
0.006647422    0.0001603285   0.0001603285  
0.006851118    0.0001600336   0.0001600336  
0.007055405    0.0001597389   0.0001597389  
0.007260287    0.0001594445   0.0001594445  
0.00746568     0.0001591504   0.0001591504  
0.007671675    0.0001588566   0.0001588566  
0.007878189    0.0001585632   0.0001585632  
0.008085311    0.00015827     0.00015827    
0.008292958    0.0001579772   0.0001579772  
0.00850122     0.0001576846   0.0001576846  
0.008710013    0.0001573924   0.0001573924  
0.00891934     0.0001571006   0.0001571006  
0.009129113    0.0001568093   0.0001568093  
0.009339336    0.0001565184   0.0001565184  
0.009550011    0.000156228    0.000156228   
0.009761139    0.0001559381   0.0001559381  
0.009972722    0.0001556487   0.0001556487  
0.01018467     0.0001553599   0.0001553599  
0.01039708     0.0001550715   0.0001550715  
0.01060986     0.0001547838   0.0001547838  
0.0108231      0.0001544965   0.0001544965  
0.01103672     0.0001542099   0.0001542099  
0.0112507      0.0001539238   0.0001539238  
0.01146507     0.0001536383   0.0001536383  
0.01167971     0.0001533536   0.0001533536  
0.01189474     0.0001530694   0.0001530694  
0.01211005     0.0001527859   0.0001527859  
0.01232574     0.0001525031   0.0001525031  
0.01254171     0.0001522209   0.0001522209  
0.01275798     0.0001519394   0.0001519394  
0.01297453     0.0001516587   0.0001516587  
0.01319147     0.0001513785   0.0001513785  
0.01340869     0.000151099    0.000151099   
0.01362621     0.0001508202   0.0001508202  
0.01384403     0.0001505421   0.0001505421  
0.01406213     0.0001502647   0.0001502647  
0.01428053     0.000149988    0.000149988   
0.01449913     0.0001497121   0.0001497121  
0.01471802     0.0001494368   0.0001494368  
0.0149372      0.0001491623   0.0001491623  
0.01515669     0.0001488884   0.0001488884  
0.01537637     0.0001486153   0.0001486153  
0.01559636     0.0001483429   0.0001483429  
0.01581664     0.0001480711   0.0001480711  
0.01603713     0.0001478002   0.0001478002  
0.01625791     0.0001475299   0.0001475299  
0.016479       0.0001472603   0.0001472603  
0.01670029     0.0001469914   0.0001469914  
0.01692179     0.0001467234   0.0001467234  
0.01714358     0.0001464559   0.0001464559  
0.01736559     0.0001461893   0.0001461893  
0.01758779     0.0001459234   0.0001459234  
0.01781031     0.0001456582   0.0001456582  
0.01803303     0.0001453937   0.0001453937  
0.01825596     0.00014513     0.00014513    
0.01847909     0.000144867    0.000144867   
0.01870253     0.0001446047   0.0001446047  
0.01892618     0.0001443431   0.0001443431  
0.01915004     0.0001440823   0.0001440823  
0.01937411     0.0001438222   0.0001438222  
0.01959839     0.0001435629   0.0001435629  
0.01982288     0.0001433043   0.0001433043  
0.02004757     0.0001430464   0.0001430464  
0.02027248     0.0001427893   0.0001427893  
0.0204976      0.0001425329   0.0001425329  
0.02072293     0.0001422772   0.0001422772  
0.02094847     0.0001420223   0.0001420223  
0.02117423     0.0001417681   0.0001417681  
0.02140019     0.0001415146   0.0001415146  
0.02162637     0.0001412618   0.0001412618  
0.02185277     0.0001410097   0.0001410097  
0.02207927     0.0001407584   0.0001407584  
0.02230599     0.0001405079   0.0001405079  
0.02253292     0.000140258    0.000140258   
0.02276007     0.0001400089   0.0001400089  
0.02298733     0.0001397605   0.0001397605  
0.0232148      0.0001395129   0.0001395129  
0.02344249     0.0001392659   0.0001392659  
0.02367029     0.0001390198   0.0001390198  
0.02389831     0.0001387743   0.0001387743  
0.02412655     0.0001385295   0.0001385295  
0.0243549      0.0001382855   0.0001382855  
0.02458346     0.0001380422   0.0001380422  
0.02481214     0.0001377997   0.0001377997  
0.02504103     0.0001375578   0.0001375578  
0.02527015     0.0001373166   0.0001373166  
0.02549938     0.0001370762   0.0001370762  
0.02572883     0.0001368364   0.0001368364  
0.02595839     0.0001365975   0.0001365975  
0.02618817     0.0001363591   0.0001363591  
0.02641806     0.0001361215   0.0001361215  
0.02664818     0.0001358846   0.0001358846  
0.02687841     0.0001356485   0.0001356485  
0.02710886     0.0001354129   0.0001354129  
0.02733943     0.0001351782   0.0001351782  
0.02757011     0.0001349441   0.0001349441  
0.02780101     0.0001347108   0.0001347108  
0.02803203     0.0001344781   0.0001344781  
0.02826327     0.0001342461   0.0001342461  
0.02849463     0.0001340148   0.0001340148  
0.0287261      0.0001337842   0.0001337842  
0.0289578      0.0001335543   0.0001335543  
0.02918961     0.0001333251   0.0001333251  
0.02942154     0.0001330966   0.0001330966  
0.02965369     0.0001328687   0.0001328687  
0.02988596     0.0001326416   0.0001326416  
0.03011835     0.0001324151   0.0001324151  
0.03035096     0.0001321893   0.0001321893  
0.03058369     0.0001319641   0.0001319641  
0.03081654     0.0001317397   0.0001317397  
0.0310495      0.000131516    0.000131516   
0.03128269     0.0001312928   0.0001312928  
0.031516       0.0001310704   0.0001310704  
0.03174942     0.0001308486   0.0001308486  
0.03198296     0.0001306275   0.0001306275  
0.03221662     0.0001304072   0.0001304072  
0.0324504      0.0001301875   0.0001301875  
0.03268441     0.0001299683   0.0001299683  
0.03291853     0.0001297499   0.0001297499  
0.03315278     0.0001295321   0.0001295321  
0.03338714     0.000129315    0.000129315   
0.03362162     0.0001290985   0.0001290985  
0.03385633     0.0001288827   0.0001288827  
0.03409116     0.0001286674   0.0001286674  
0.03432612     0.0001284529   0.0001284529  
0.03456119     0.000128239    0.000128239   
0.03479637     0.0001280257   0.0001280257  
0.03503168     0.0001278131   0.0001278131  
0.03526723     0.000127601    0.000127601   
0.03550289     0.0001273896   0.0001273896  
0.03573868     0.0001271788   0.0001271788  
0.03597458     0.0001269687   0.0001269687  
0.03621061     0.0001267592   0.0001267592  
0.03644676     0.0001265503   0.0001265503  
0.03668302     0.000126342    0.000126342   
0.03691941     0.0001261344   0.0001261344  
0.03715591     0.0001259274   0.0001259274  
0.03739266     0.0001257209   0.0001257209  
0.03762953     0.0001255151   0.0001255151  
0.03786652     0.0001253098   0.0001253098  
0.03810364     0.0001251052   0.0001251052  
0.03834087     0.0001249012   0.0001249012  
0.03857835     0.0001246977   0.0001246977  
0.03881595     0.0001244948   0.0001244948  
0.03905368     0.0001242924   0.0001242924  
0.03929152     0.0001240907   0.0001240907  
0.03952949     0.0001238896   0.0001238896  
0.03976758     0.0001236891   0.0001236891  
0.0400058      0.0001234892   0.0001234892  
0.04024414     0.0001232898   0.0001232898  
0.0404826      0.0001230911   0.0001230911  
0.04072119     0.0001228929   0.0001228929  
0.0409599      0.0001226953   0.0001226953  
0.04119873     0.0001224983   0.0001224983  
0.04143769     0.0001223019   0.0001223019  
0.04167678     0.000122106    0.000122106   
0.04191598     0.0001219107   0.0001219107  
0.04215532     0.000121716    0.000121716   
0.04239478     0.0001215218   0.0001215218  
0.04263436     0.0001213282   0.0001213282  
0.04287407     0.0001211352   0.0001211352  
0.0431139      0.0001209427   0.0001209427  
0.04335387     0.0001207508   0.0001207508  
0.04359395     0.0001205594   0.0001205594  
0.04383417     0.0001203686   0.0001203686  
0.04407451     0.0001201783   0.0001201783  
0.04431497     0.0001199886   0.0001199886  
0.04455557     0.0001197994   0.0001197994  
0.04479629     0.0001196107   0.0001196107  
0.04503714     0.0001194226   0.0001194226  
0.04527811     0.000119235    0.000119235   
0.04551922     0.000119048    0.000119048   
0.04576045     0.0001188615   0.0001188615  
0.04600181     0.0001186755   0.0001186755  
0.0462433      0.00011849     0.00011849    
0.04648491     0.0001183051   0.0001183051  
0.04672666     0.0001181206   0.0001181206  
0.04696854     0.0001179367   0.0001179367  
0.04721054     0.0001177533   0.0001177533  
0.04745267     0.0001175705   0.0001175705  
0.04769494     0.0001173881   0.0001173881  
0.04793733     0.0001172062   0.0001172062  
0.04817985     0.0001170249   0.0001170249  
0.04842237     0.0001168442   0.0001168442  
0.04866503     0.0001166639   0.0001166639  
0.04890781     0.0001164842   0.0001164842  
0.04915073     0.0001163049   0.0001163049  
0.04939377     0.0001161262   0.0001161262  
0.04963695     0.0001159479   0.0001159479  
0.04988026     0.0001157701   0.0001157701  
0.0501237      0.0001155928   0.0001155928  
0.05036727     0.000115416    0.000115416   
0.05061084     0.0001152398   0.0001152398  
0.05085454     0.0001150641   0.0001150641  
0.05109838     0.0001148888   0.0001148888  
0.05134235     0.0001147141   0.0001147141  
0.05158645     0.0001145398   0.0001145398  
0.05183068     0.0001143659   0.0001143659  
0.05207491     0.0001141927   0.0001141927  
0.05231928     0.0001140199   0.0001140199  
0.05256378     0.0001138475   0.0001138475  
0.05280842     0.0001136756   0.0001136756  
0.05305318     0.0001135042   0.0001135042  
0.05329809     0.0001133333   0.0001133333  
0.05354299     0.0001131629   0.0001131629  
0.05378803     0.000112993    0.000112993   
0.0540332      0.0001128235   0.0001128235  
0.0542785      0.0001126544   0.0001126544  
0.05452395     0.0001124858   0.0001124858  
0.05476939     0.0001123178   0.0001123178  
0.05501496     0.0001121502   0.0001121502  
0.05526068     0.000111983    0.000111983   
0.05550652     0.0001118163   0.0001118163  
0.05575237     0.0001116501   0.0001116501  
0.05599836     0.0001114844   0.0001114844  
0.05624448     0.000111319    0.000111319   
0.05649073     0.0001111542   0.0001111542  
0.05673699     0.0001109898   0.0001109898  
0.05698339     0.0001108259   0.0001108259  
0.05722992     0.0001106624   0.0001106624  
0.05747659     0.0001104993   0.0001104993  
0.05772325     0.0001103367   0.0001103367  
0.05797006     0.0001101746   0.0001101746  
0.058217       0.0001100128   0.0001100128  
0.05846409     0.0001098515   0.0001098515  
0.05871117     0.0001096907   0.0001096907  
0.05895839     0.0001095303   0.0001095303  
0.05920575     0.0001093703   0.0001093703  
0.05945325     0.0001092108   0.0001092108  
0.05970075     0.0001090517   0.0001090517  
0.05994838     0.000108893    0.000108893   
0.06019616     0.0001087348   0.0001087348  
0.06044394     0.000108577    0.000108577   
0.06069185     0.0001084196   0.0001084196  
0.06093991     0.0001082626   0.0001082626  
0.06118811     0.000108106    0.000108106   
0.0614363      0.0001079499   0.0001079499  
0.06168464     0.0001077942   0.0001077942  
0.06193312     0.0001076389   0.0001076389  
0.0621816      0.0001074841   0.0001074841  
0.06243022     0.0001073296   0.0001073296  
0.06267898     0.0001071756   0.0001071756  
0.06292774     0.000107022    0.000107022   
0.06317664     0.0001068688   0.0001068688  
0.06342568     0.0001067159   0.0001067159  
0.06367473     0.0001065636   0.0001065636  
0.06392391     0.0001064116   0.0001064116  
0.06417324     0.00010626     0.00010626    
0.06442257     0.0001061088   0.0001061088  
0.06467204     0.000105958    0.000105958   
0.06492166     0.0001058076   0.0001058076  
0.06517127     0.0001056577   0.0001056577  
0.06542103     0.0001055081   0.0001055081  
0.06567079     0.0001053589   0.0001053589  
0.06592069     0.0001052102   0.0001052102  
0.06617074     0.0001050618   0.0001050618  
0.06642078     0.0001049138   0.0001049138  
0.06667097     0.0001047662   0.0001047662  
0.06692131     0.0001046189   0.0001046189  
0.06717164     0.0001044721   0.0001044721  
0.06742212     0.0001043256   0.0001043256  
0.0676726      0.0001041796   0.0001041796  
0.06792322     0.0001040339   0.0001040339  
0.06817399     0.0001038886   0.0001038886  
0.06842476     0.0001037437   0.0001037437  
0.06867568     0.0001035991   0.0001035991  
0.0689266      0.000103455    0.000103455   
0.06917766     0.0001033112   0.0001033112  
0.06942887     0.0001031678   0.0001031678  
0.06968007     0.0001030248   0.0001030248  
0.06993143     0.0001028821   0.0001028821  
0.07018278     0.0001027398   0.0001027398  
0.07043429     0.0001025979   0.0001025979  
0.07068579     0.0001024564   0.0001024564  
0.07093744     0.0001023152   0.0001023152  
0.07118924     0.0001021743   0.0001021743  
0.07144103     0.0001020339   0.0001020339  
0.07169298     0.0001018938   0.0001018938  
0.07194492     0.0001017541   0.0001017541  
0.07219702     0.0001016147   0.0001016147  
0.07244911     0.0001014757   0.0001014757  
0.07270135     0.000101337    0.000101337   
0.0729536      0.0001011988   0.0001011988  
0.07320599     0.0001010608   0.0001010608  
0.07345838     0.0001009233   0.0001009233  
0.07371092     0.0001007861   0.0001007861  
0.07396361     0.0001006491   0.0001006491  
0.0742163      0.0001005126   0.0001005126  
0.07446914     0.0001003764   0.0001003764  
0.07472198     0.0001002406   0.0001002406  
0.07497497     0.0001001051   0.0001001051  
0.07522796     9.996994e-05   9.996994e-05  
0.07548111     9.983512e-05   9.983512e-05  
0.07573425     9.970068e-05   9.970068e-05  
0.07598754     9.956654e-05   9.956654e-05  
0.07624083     9.943278e-05   9.943278e-05  
0.07649428     9.929933e-05   9.929933e-05  
0.07674772     9.916625e-05   9.916625e-05  
0.07700132     9.903346e-05   9.903346e-05  
0.07725492     9.890105e-05   9.890105e-05  
0.07750866     9.876894e-05   9.876894e-05  
0.07776241     9.86372e-05    9.86372e-05   
0.07801631     9.850575e-05   9.850575e-05  
0.07827021     9.837467e-05   9.837467e-05  
0.07852427     9.824387e-05   9.824387e-05  
0.07877832     9.811344e-05   9.811344e-05  
0.07903253     9.79833e-05    9.79833e-05   
0.07928674     9.785353e-05   9.785353e-05  
0.07954094     9.772411e-05   9.772411e-05  
0.07979531     9.759498e-05   9.759498e-05  
0.08004967     9.74662e-05    9.74662e-05   
0.08030418     9.73377e-05    9.73377e-05   
0.0805587      9.720957e-05   9.720957e-05  
0.08081337     9.70817e-05    9.70817e-05   
0.08106804     9.695419e-05   9.695419e-05  
0.08132286     9.682696e-05   9.682696e-05  
0.08157769     9.670008e-05   9.670008e-05  
0.08183267     9.657347e-05   9.657347e-05  
0.08208765     9.64472e-05    9.64472e-05   
0.08234278     9.632121e-05   9.632121e-05  
0.08259792     9.619556e-05   9.619556e-05  
0.08285321     9.607018e-05   9.607018e-05  
0.0831085      9.594514e-05   9.594514e-05  
0.08336379     9.582045e-05   9.582045e-05  
0.08361924     9.569601e-05   9.569601e-05  
0.08387469     9.557192e-05   9.557192e-05  
0.0841303      9.544809e-05   9.544809e-05  
0.0843859      9.532459e-05   9.532459e-05  
0.08464166     9.520135e-05   9.520135e-05  
0.08489743     9.507845e-05   9.507845e-05  
0.08515335     9.49558e-05    9.49558e-05   
0.08540927     9.483349e-05   9.483349e-05  
0.08566519     9.47115e-05    9.47115e-05   
0.08592127     9.458977e-05   9.458977e-05  
0.08617734     9.446836e-05   9.446836e-05  
0.08643358     9.434721e-05   9.434721e-05  
0.08668982     9.422638e-05   9.422638e-05  
0.08694605     9.410588e-05   9.410588e-05  
0.08720245     9.398562e-05   9.398562e-05  
0.08745885     9.386568e-05   9.386568e-05  
0.0877154      9.374599e-05   9.374599e-05  
0.08797196     9.362662e-05   9.362662e-05  
0.08822851     9.350756e-05   9.350756e-05  
0.08848523     9.338875e-05   9.338875e-05  
0.08874194     9.327026e-05   9.327026e-05  
0.08899882     9.3152e-05     9.3152e-05    
0.0892557      9.303406e-05   9.303406e-05  
0.08951257     9.291642e-05   9.291642e-05  
0.08976961     9.279903e-05   9.279903e-05  
0.09002664     9.268194e-05   9.268194e-05  
0.09028384     9.256509e-05   9.256509e-05  
0.09054104     9.244855e-05   9.244855e-05  
0.09079824     9.233231e-05   9.233231e-05  
0.0910556      9.221631e-05   9.221631e-05  
0.09131296     9.21006e-05    9.21006e-05   
0.09157032     9.19852e-05    9.19852e-05   
0.09182784     9.187003e-05   9.187003e-05  
0.09208536     9.175516e-05   9.175516e-05  
0.09234304     9.164052e-05   9.164052e-05  
0.09260073     9.152617e-05   9.152617e-05  
0.09285841     9.141213e-05   9.141213e-05  
0.09311626     9.12983e-05    9.12983e-05   
0.09337411     9.118477e-05   9.118477e-05  
0.09363196     9.107153e-05   9.107153e-05  
0.09388997     9.095852e-05   9.095852e-05  
0.09414798     9.08458e-05    9.08458e-05   
0.09440599     9.073336e-05   9.073336e-05  
0.09466417     9.062115e-05   9.062115e-05  
0.09492234     9.050922e-05   9.050922e-05  
0.09518052     9.039758e-05   9.039758e-05  
0.09543886     9.028616e-05   9.028616e-05  
0.0956972      9.017502e-05   9.017502e-05  
0.09595554     9.006416e-05   9.006416e-05  
0.09621405     8.995352e-05   8.995352e-05  
0.09647255     8.984316e-05   8.984316e-05  
0.09673106     8.973308e-05   8.973308e-05  
0.09698973     8.962321e-05   8.962321e-05  
0.0972484      8.951362e-05   8.951362e-05  
0.09750724     8.940424e-05   8.940424e-05  
0.09776608     8.929513e-05   8.929513e-05  
0.09802491     8.91863e-05    8.91863e-05   
0.09828375     8.907775e-05   8.907775e-05  
0.09854276     8.896939e-05   8.896939e-05  
0.09880176     8.886132e-05   8.886132e-05  
0.09906093     8.875344e-05   8.875344e-05  
0.0993201      8.864584e-05   8.864584e-05  
0.09957928     8.853851e-05   8.853851e-05  
0.09983845     8.843144e-05   8.843144e-05  
0.1000978      8.832458e-05   8.832458e-05  
0.1003571      8.821798e-05   8.821798e-05  
0.1006165      8.811165e-05   8.811165e-05  
0.100876       8.800551e-05   8.800551e-05  
0.1011355      8.789964e-05   8.789964e-05  
0.101395       8.779404e-05   8.779404e-05  
0.1016547      8.768862e-05   8.768862e-05  
0.1019143      8.758347e-05   8.758347e-05  
0.102174       8.747858e-05   8.747858e-05  
0.1024337      8.737395e-05   8.737395e-05  
0.1026936      8.726951e-05   8.726951e-05  
0.1029534      8.716533e-05   8.716533e-05  
0.1032132      8.706141e-05   8.706141e-05  
0.1034733      8.695767e-05   8.695767e-05  
0.1037333      8.685419e-05   8.685419e-05  
0.1039933      8.675096e-05   8.675096e-05  
0.1042535      8.664792e-05   8.664792e-05  
0.1045137      8.654514e-05   8.654514e-05  
0.1047739      8.64426e-05    8.64426e-05   
0.1050342      8.634025e-05   8.634025e-05  
0.1052946      8.623815e-05   8.623815e-05  
0.1055549      8.613629e-05   8.613629e-05  
0.1058153      8.603469e-05   8.603469e-05  
0.1060758      8.593326e-05   8.593326e-05  
0.1063364      8.583209e-05   8.583209e-05  
0.1065969      8.573116e-05   8.573116e-05  
0.1068576      8.56304e-05    8.56304e-05   
0.1071183      8.552989e-05   8.552989e-05  
0.107379       8.542963e-05   8.542963e-05  
0.1076397      8.53296e-05    8.53296e-05   
0.1079006      8.522976e-05   8.522976e-05  
0.1081615      8.513015e-05   8.513015e-05  
0.1084223      8.503078e-05   8.503078e-05  
0.1086832      8.493165e-05   8.493165e-05  
0.1089443      8.48327e-05    8.48327e-05   
0.1092053      8.473398e-05   8.473398e-05  
0.1094664      8.46355e-05    8.46355e-05   
0.1097274      8.453725e-05   8.453725e-05  
0.1099887      8.443917e-05   8.443917e-05  
0.1102499      8.434133e-05   8.434133e-05  
0.1105111      8.424372e-05   8.424372e-05  
0.1107723      8.414635e-05   8.414635e-05  
0.1110337      8.404914e-05   8.404914e-05  
0.1112951      8.395216e-05   8.395216e-05  
0.1115565      8.385541e-05   8.385541e-05  
0.1118179      8.375889e-05   8.375889e-05  
0.1120795      8.366254e-05   8.366254e-05  
0.1123411      8.356641e-05   8.356641e-05  
0.1126027      8.347052e-05   8.347052e-05  
0.1128643      8.337484e-05   8.337484e-05  
0.1131258      8.32794e-05    8.32794e-05   
0.1133876      8.318411e-05   8.318411e-05  
0.1136494      8.308905e-05   8.308905e-05  
0.1139111      8.299421e-05   8.299421e-05  
0.1141729      8.289959e-05   8.289959e-05  
0.1144348      8.280514e-05   8.280514e-05  
0.1146967      8.27109e-05    8.27109e-05   
0.1149587      8.261688e-05   8.261688e-05  
0.1152206      8.252309e-05   8.252309e-05  
0.1154827      8.242945e-05   8.242945e-05  
0.1157448      8.233602e-05   8.233602e-05  
0.1160069      8.224282e-05   8.224282e-05  
0.116269       8.214983e-05   8.214983e-05  
0.1165313      8.205699e-05   8.205699e-05  
0.1167936      8.196438e-05   8.196438e-05  
0.1170559      8.187197e-05   8.187197e-05  
0.1173182      8.177978e-05   8.177978e-05  
0.1175805      8.16878e-05    8.16878e-05   
0.117843       8.159597e-05   8.159597e-05  
0.1181054      8.150436e-05   8.150436e-05  
0.1183679      8.141296e-05   8.141296e-05  
0.1186304      8.132176e-05   8.132176e-05  
0.118893       8.123072e-05   8.123072e-05  
0.1191557      8.113988e-05   8.113988e-05  
0.1194183      8.104925e-05   8.104925e-05  
0.119681       8.095883e-05   8.095883e-05  
0.1199438      8.086855e-05   8.086855e-05  
0.1202066      8.077849e-05   8.077849e-05  
0.1204695      8.068862e-05   8.068862e-05  
0.1207323      8.059897e-05   8.059897e-05  
0.1209951      8.050951e-05   8.050951e-05  
0.1212582      8.04202e-05    8.04202e-05   
0.1215212      8.03311e-05    8.03311e-05   
0.1217842      8.024219e-05   8.024219e-05  
0.1220472      8.015349e-05   8.015349e-05  
0.1223104      8.006493e-05   8.006493e-05  
0.1225736      7.997657e-05   7.997657e-05  
0.1228368      7.98884e-05    7.98884e-05   
0.1231         7.980044e-05   7.980044e-05  
0.1233634      7.971262e-05   7.971262e-05  
0.1236268      7.962499e-05   7.962499e-05  
0.1238901      7.953757e-05   7.953757e-05  
0.1241535      7.945033e-05   7.945033e-05  
0.1244171      7.936324e-05   7.936324e-05  
0.1246807      7.927634e-05   7.927634e-05  
0.1249442      7.918964e-05   7.918964e-05  
0.1252078      7.910313e-05   7.910313e-05  
0.1254714      7.901681e-05   7.901681e-05  
0.1257351      7.893063e-05   7.893063e-05  
0.1259989      7.884464e-05   7.884464e-05  
0.1262626      7.875884e-05   7.875884e-05  
0.1265264      7.867324e-05   7.867324e-05  
0.1267903      7.858776e-05   7.858776e-05  
0.1270542      7.850248e-05   7.850248e-05  
0.1273182      7.841739e-05   7.841739e-05  
0.1275821      7.833248e-05   7.833248e-05  
0.1278461      7.824777e-05   7.824777e-05  
0.1281102      7.816318e-05   7.816318e-05  
0.1283743      7.807878e-05   7.807878e-05  
0.1286384      7.799457e-05   7.799457e-05  
0.1289026      7.791054e-05   7.791054e-05  
0.1291667      7.78267e-05    7.78267e-05   
0.129431       7.774299e-05   7.774299e-05  
0.1296953      7.765946e-05   7.765946e-05  
0.1299596      7.757611e-05   7.757611e-05  
0.130224       7.749295e-05   7.749295e-05  
0.1304885      7.740991e-05   7.740991e-05  
0.130753       7.732706e-05   7.732706e-05  
0.1310175      7.724439e-05   7.724439e-05  
0.131282       7.71619e-05    7.71619e-05   
0.1315465      7.707959e-05   7.707959e-05  
0.1318112      7.69974e-05    7.69974e-05   
0.1320759      7.691539e-05   7.691539e-05  
0.1323406      7.683356e-05   7.683356e-05  
0.1326054      7.675185e-05   7.675185e-05  
0.1328703      7.667032e-05   7.667032e-05  
0.1331352      7.658897e-05   7.658897e-05  
0.1334003      7.650773e-05   7.650773e-05  
0.1336654      7.642668e-05   7.642668e-05  
0.1339304      7.63458e-05    7.63458e-05   
0.1341955      7.626509e-05   7.626509e-05  
0.1344608      7.618451e-05   7.618451e-05  
0.134726       7.610409e-05   7.610409e-05  
0.1349913      7.602386e-05   7.602386e-05  
0.1352566      7.594379e-05   7.594379e-05  
0.1355218      7.58639e-05    7.58639e-05   
0.1357873      7.578413e-05   7.578413e-05  
0.1360528      7.570452e-05   7.570452e-05  
0.1363182      7.562509e-05   7.562509e-05  
0.1365837      7.554583e-05   7.554583e-05  
0.1368492      7.546675e-05   7.546675e-05  
0.1371148      7.538777e-05   7.538777e-05  
0.1373805      7.530896e-05   7.530896e-05  
0.1376461      7.523033e-05   7.523033e-05  
0.137912       7.51518e-05    7.51518e-05   
0.1381778      7.507345e-05   7.507345e-05  
0.1384437      7.499526e-05   7.499526e-05  
0.1387095      7.491724e-05   7.491724e-05  
0.1389756      7.483933e-05   7.483933e-05  
0.1392416      7.476158e-05   7.476158e-05  
0.1395077      7.468401e-05   7.468401e-05  
0.1397737      7.460659e-05   7.460659e-05  
0.1400399      7.452929e-05   7.452929e-05  
0.1403062      7.445215e-05   7.445215e-05  
0.1405724      7.437518e-05   7.437518e-05  
0.1408387      7.429837e-05   7.429837e-05  
0.1411051      7.422166e-05   7.422166e-05  
0.1413716      7.414512e-05   7.414512e-05  
0.141638       7.406875e-05   7.406875e-05  
0.1419044      7.399253e-05   7.399253e-05  
0.1421711      7.391642e-05   7.391642e-05  
0.1424377      7.384047e-05   7.384047e-05  
0.1427044      7.376468e-05   7.376468e-05  
0.142971       7.368906e-05   7.368906e-05  
0.1432378      7.361353e-05   7.361353e-05  
0.1435047      7.353817e-05   7.353817e-05  
0.1437715      7.346296e-05   7.346296e-05  
0.1440383      7.338792e-05   7.338792e-05  
0.1443054      7.331297e-05   7.331297e-05  
0.1445724      7.323819e-05   7.323819e-05  
0.1448395      7.316356e-05   7.316356e-05  
0.1451065      7.308909e-05   7.308909e-05  
0.1453735      7.301477e-05   7.301477e-05  
0.1456408      7.294055e-05   7.294055e-05  
0.145908       7.28665e-05    7.28665e-05   
0.1461752      7.279259e-05   7.279259e-05  
0.1464425      7.271884e-05   7.271884e-05  
0.1467099      7.264519e-05   7.264519e-05  
0.1469774      7.25717e-05    7.25717e-05   
0.1472448      7.249835e-05   7.249835e-05  
0.1475123      7.242516e-05   7.242516e-05  
0.1477797      7.235213e-05   7.235213e-05  
0.1480473      7.227919e-05   7.227919e-05  
0.148315       7.22064e-05    7.22064e-05   
0.1485826      7.213376e-05   7.213376e-05  
0.1488503      7.206128e-05   7.206128e-05  
0.1491181      7.198889e-05   7.198889e-05  
0.149386       7.191665e-05   7.191665e-05  
0.1496538      7.184457e-05   7.184457e-05  
0.1499217      7.177263e-05   7.177263e-05  
0.1501895      7.170084e-05   7.170084e-05  
0.1504576      7.162914e-05   7.162914e-05  
0.1507256      7.155759e-05   7.155759e-05  
0.1509937      7.14862e-05    7.14862e-05   
0.1512617      7.141494e-05   7.141494e-05  
0.1515298      7.134384e-05   7.134384e-05  
0.151798       7.127283e-05   7.127283e-05  
0.1520663      7.120196e-05   7.120196e-05  
0.1523346      7.113124e-05   7.113124e-05  
0.1526028      7.106067e-05   7.106067e-05  
0.1528713      7.099019e-05   7.099019e-05  
0.1531398      7.091985e-05   7.091985e-05  
0.1534082      7.084966e-05   7.084966e-05  
0.1536767      7.077961e-05   7.077961e-05  
0.1539452      7.070971e-05   7.070971e-05  
0.1542138      7.063989e-05   7.063989e-05  
0.1544825      7.057022e-05   7.057022e-05  
0.1547512      7.050069e-05   7.050069e-05  
0.1550199      7.04313e-05    7.04313e-05   
0.1552888      7.036201e-05   7.036201e-05  
0.1555576      7.029285e-05   7.029285e-05  
0.1558265      7.022383e-05   7.022383e-05  
0.1560954      7.015496e-05   7.015496e-05  
0.1563645      7.008617e-05   7.008617e-05  
0.1566336      7.001752e-05   7.001752e-05  
0.1569027      6.994902e-05   6.994902e-05  
0.1571718      6.988065e-05   6.988065e-05  