/*--------------------------------*- C++ -*----------------------------------*\
  =========                 |
  \\      /  F ield         | OpenFOAM: The Open Source CFD Toolbox
   \\    /   O peration     | Website:  https://openfoam.org
    \\  /    A nd           | Version:  8
     \\/     M anipulation  |
\*---------------------------------------------------------------------------*/
FoamFile
{
    version     2.0;
    format      ascii;
    class       featureEdgeMesh;
    location    "constant/triSurface";
    object      cylinder_1.eMesh;
}
// * * * * * * * * * * * * * * * * * * * * * * * * * * * * * * * * * * * * * //


// points:

952
(
(0.0004251306 -0.001954294 0.013)
(0.0005634651 -0.001918986 0.013)
(0.0006989284 -0.001873899 0.013)
(0.0005634651 0.001918986 0.013)
(0.0004251306 0.001954294 0.013)
(0.0002846297 0.001979643 0.013)
(0.001979643 0.0002846297 0.013)
(0.001954294 0.0004251306 0.013)
(0.001918986 0.0005634651 0.013)
(-0.001414214 -0.001414214 0.013)
(-0.001309721 -0.001511499 0.013)
(-0.001198555 -0.001601083 0.013)
(0.0008308301 -0.001819264 0.013)
(-0.001819264 0.0008308301 0.013)
(-0.001873899 0.0006989284 0.013)
(-0.001918986 0.0005634651 0.013)
(0.001873899 0.0006989284 0.013)
(0.0008308301 0.001819264 0.013)
(0.0006989284 0.001873899 0.013)
(-0.001682507 -0.001081282 0.013)
(-0.001601083 -0.001198555 0.013)
(-0.001511499 -0.001309721 0.013)
(-0.001755358 0.000958498 0.013)
(0.001819264 0.0008308301 0.013)
(0.001755358 0.000958498 0.013)
(0.000958498 -0.001755358 0.013)
(-0.001755358 -0.000958498 0.013)
(-0.001682507 0.001081282 0.013)
(0.001081282 -0.001682507 0.013)
(-0.001081282 -0.001682507 0.013)
(-0.000958498 -0.001755358 0.013)
(-0.0008308301 -0.001819264 0.013)
(0.001682507 0.001081282 0.013)
(0.001601083 0.001198555 0.013)
(0.000958498 0.001755358 0.013)
(-0.001511499 0.001309721 0.013)
(-0.001601083 0.001198555 0.013)
(0.001309721 0.001511499 0.013)
(0.001198555 0.001601083 0.013)
(0.001081282 0.001682507 0.013)
(0.001198555 -0.001601083 0.013)
(0.001309721 -0.001511499 0.013)
(0.001511499 0.001309721 0.013)
(0.001414214 0.001414214 0.013)
(-0.001414214 0.001414214 0.013)
(0.001414214 -0.001414214 0.013)
(-0.001918986 -0.0005634651 0.013)
(-0.001873899 -0.0006989284 0.013)
(-0.001819264 -0.0008308301 0.013)
(0.001511499 -0.001309721 0.013)
(0.001601083 -0.001198555 0.013)
(-0.0006989284 -0.001873899 0.013)
(-0.0005634651 -0.001918986 0.013)
(-0.0004251306 -0.001954294 0.013)
(-0.0002846297 -0.001979643 0.013)
(-0.001979643 -0.0002846297 0.013)
(-0.001954294 -0.0004251306 0.013)
(-0.000958498 0.001755358 0.013)
(-0.001081282 0.001682507 0.013)
(-0.001198555 0.001601083 0.013)
(-0.001309721 0.001511499 0.013)
(0.001682507 -0.001081282 0.013)
(0.001755358 -0.000958498 0.013)
(0.001819264 -0.0008308301 0.013)
(-0.0008308301 0.001819264 0.013)
(-0.0001426784 -0.001994904 0.013)
(-3.920108e-18 -0.002 0.013)
(0.001873899 -0.0006989284 0.013)
(-0.0006989284 0.001873899 0.013)
(-0.002 2.021286e-18 0.013)
(-0.001994904 -0.0001426784 0.013)
(0.001918986 -0.0005634651 0.013)
(0.0001426784 -0.001994904 0.013)
(-0.0005634651 0.001918986 0.013)
(-0.001994904 0.0001426784 0.013)
(0.001954294 -0.0004251306 0.013)
(0.001979643 -0.0002846297 0.013)
(-0.0002846297 0.001979643 0.013)
(-0.0004251306 0.001954294 0.013)
(0.001994904 -0.0001426784 0.013)
(-0.0001426784 0.001994904 0.013)
(0.0002846297 -0.001979643 0.013)
(0.002 -4.898587e-19 0.013)
(0.001994904 0.0001426784 0.013)
(0.0001426784 0.001994904 0.013)
(5.665539e-19 0.002 0.013)
(-0.001954294 0.0004251306 0.013)
(-0.001979643 0.0002846297 0.013)
(-0.003835681 -0.02267791 0.0115)
(-0.00335991 -0.02275326 0.0115)
(-0.002882664 -0.02281864 0.0115)
(0.01915719 0.01272801 0.0115)
(0.01888643 0.01312641 0.0115)
(-0.002404155 -0.022874 0.0115)
(-0.004781969 0.0224974 0.0115)
(-0.00525207 0.02239231 0.0115)
(0.01351906 0.01860739 0.0115)
(0.01312641 0.01888643 0.0115)
(0.01860739 0.01351906 0.0115)
(0.01832019 0.01390578 0.0115)
(0.02239231 -0.00525207 0.0115)
(0.0224974 -0.004781969 0.0115)
(0.01390578 0.01832019 0.0115)
(0.01802495 0.0142864 0.0115)
(0.0142864 0.01802495 0.0115)
(-0.00430977 0.02259261 0.0115)
(0.0177218 0.01466075 0.0115)
(0.01466075 0.0177218 0.0115)
(0.01741089 0.01502867 0.0115)
(0.01502867 0.01741089 0.0115)
(-0.01466075 0.0177218 0.0115)
(-0.01502867 0.01741089 0.0115)
(0.02259261 -0.00430977 0.0115)
(0.01709233 0.01539 0.0115)
(0.01539 0.01709233 0.0115)
(0.01676628 0.01574458 0.0115)
(-0.01802495 -0.0142864 0.0115)
(-0.0177218 -0.01466075 0.0115)
(-0.01741089 -0.01502867 0.0115)
(-0.01709233 -0.01539 0.0115)
(-0.01676628 -0.01574458 0.0115)
(-0.003835681 0.02267791 0.0115)
(0.01574458 0.01676628 0.0115)
(-0.01574458 -0.01676628 0.0115)
(-0.01539 -0.01709233 0.0115)
(0.01741089 -0.01502867 0.0115)
(0.0177218 -0.01466075 0.0115)
(-0.01502867 -0.01741089 0.0115)
(-0.022874 -0.002404155 0.0115)
(-0.02281864 -0.002882664 0.0115)
(-0.01466075 -0.0177218 0.0115)
(0.01643287 0.01609226 0.0115)
(-0.02275326 -0.00335991 0.0115)
(-0.0142864 -0.01802495 0.0115)
(-0.02267791 -0.003835681 0.0115)
(-0.02259261 -0.00430977 0.0115)
(0.01609226 0.01643287 0.0115)
(-0.00192459 -0.02291934 0.0115)
(-0.001444182 -0.02295461 0.0115)
(-0.00096314 -0.02297983 0.0115)
(0.02267791 -0.003835681 0.0115)
(-0.0142864 0.01802495 0.0115)
(-0.00335991 0.02275326 0.0115)
(0.01802495 -0.0142864 0.0115)
(0.02275326 -0.00335991 0.0115)
(-0.01390578 0.01832019 0.0115)
(-0.002882664 0.02281864 0.0115)
(-0.01390578 -0.01832019 0.0115)
(-0.01351906 -0.01860739 0.0115)
(-0.01312641 -0.01888643 0.0115)
(0.02281864 -0.002882664 0.0115)
(0.01832019 -0.01390578 0.0115)
(-0.02297983 -0.00096314 0.0115)
(-0.02295461 -0.001444182 0.0115)
(-0.02291934 -0.00192459 0.0115)
(-0.0004816757 -0.02299496 0.0115)
(7.748738e-17 -0.023 0.0115)
(0.0004816757 -0.02299496 0.0115)
(0.00096314 -0.02297983 0.0115)
(-0.002404155 0.022874 0.0115)
(-0.01351906 0.01860739 0.0115)
(0.022874 -0.002404155 0.0115)
(0.01860739 -0.01351906 0.0115)
(-0.00192459 0.02291934 0.0115)
(-0.01312641 0.01888643 0.0115)
(0.02291934 -0.00192459 0.0115)
(-0.001444182 0.02295461 0.0115)
(0.01888643 -0.01312641 0.0115)
(-0.02297983 0.00096314 0.0115)
(-0.02299496 0.0004816757 0.0115)
(-0.023 -4.825357e-17 0.0115)
(-0.02299496 -0.0004816757 0.0115)
(0.001444182 -0.02295461 0.0115)
(0.00192459 -0.02291934 0.0115)
(0.002404155 -0.022874 0.0115)
(0.02295461 -0.001444182 0.0115)
(-0.01272801 0.01915719 0.0115)
(-0.00096314 0.02297983 0.0115)
(-0.01888643 -0.01312641 0.0115)
(-0.01860739 -0.01351906 0.0115)
(-0.01832019 -0.01390578 0.0115)
(0.01915719 -0.01272801 0.0115)
(0.02297983 -0.00096314 0.0115)
(-0.01232402 0.01941954 0.0115)
(-0.0004816757 0.02299496 0.0115)
(-0.022874 0.002404155 0.0115)
(-0.02291934 0.00192459 0.0115)
(-0.02295461 0.001444182 0.0115)
(0.02299496 -0.0004816757 0.0115)
(0.01941954 -0.01232402 0.0115)
(0.002882664 -0.02281864 0.0115)
(0.00335991 -0.02275326 0.0115)
(0.003835681 -0.02267791 0.0115)
(0.00430977 -0.02259261 0.0115)
(0.023 -5.633375e-18 0.0115)
(-3.698682e-18 0.023 0.0115)
(-0.01967338 -0.01191462 0.0115)
(-0.01941954 -0.01232402 0.0115)
(-0.01915719 -0.01272801 0.0115)
(-0.01191462 0.01967338 0.0115)
(-0.01272801 -0.01915719 0.0115)
(-0.01232402 -0.01941954 0.0115)
(-0.01191462 -0.01967338 0.0115)
(0.02299496 0.0004816757 0.0115)
(0.01967338 -0.01191462 0.0115)
(0.0004816757 0.02299496 0.0115)
(0.00096314 0.02297983 0.0115)
(-0.0115 0.01991859 0.0115)
(-0.02259261 0.00430977 0.0115)
(-0.02267791 0.003835681 0.0115)
(-0.02275326 0.00335991 0.0115)
(-0.02281864 0.002882664 0.0115)
(0.004781969 -0.0224974 0.0115)
(0.00525207 -0.02239231 0.0115)
(0.005719868 -0.02227741 0.0115)
(0.02297983 0.00096314 0.0115)
(0.01991859 -0.0115 0.0115)
(0.001444182 0.02295461 0.0115)
(-0.0115 -0.01991859 0.0115)
(-0.01108033 -0.02015505 0.0115)
(-0.01065581 -0.02038268 0.0115)
(-0.01022661 -0.02060137 0.0115)
(-0.01108033 0.02015505 0.0115)
(0.02295461 0.001444182 0.0115)
(0.00192459 0.02291934 0.0115)
(-0.02227741 0.005719868 0.0115)
(-0.02239231 0.00525207 0.0115)
(-0.0224974 0.004781969 0.0115)
(0.02015505 -0.01108033 0.0115)
(0.006185156 -0.02215274 0.0115)
(0.006647731 -0.02201835 0.0115)
(0.007107391 -0.0218743 0.0115)
(0.02291934 0.00192459 0.0115)
(-0.01065581 0.02038268 0.0115)
(0.002404155 0.022874 0.0115)
(0.02038268 -0.01065581 0.0115)
(0.022874 0.002404155 0.0115)
(0.002882664 0.02281864 0.0115)
(-0.0218743 0.007107391 0.0115)
(-0.02201835 0.006647731 0.0115)
(-0.02215274 0.006185156 0.0115)
(0.007563933 -0.02172066 0.0115)
(0.008017157 -0.02155749 0.0115)
(0.008466865 -0.02138486 0.0115)
(-0.01022661 0.02060137 0.0115)
(0.008912859 -0.02120285 0.0115)
(0.02281864 0.002882664 0.0115)
(0.02275326 0.00335991 0.0115)
(-0.02060137 -0.01022661 0.0115)
(-0.02038268 -0.01065581 0.0115)
(-0.02015505 -0.01108033 0.0115)
(0.02060137 -0.01022661 0.0115)
(-0.01991859 -0.0115 0.0115)
(-0.009792924 -0.02081102 0.0115)
(-0.009354942 -0.02101155 0.0115)
(-0.008912859 -0.02120285 0.0115)
(-0.02120285 0.008912859 0.0115)
(-0.02138486 0.008466865 0.0115)
(0.00335991 0.02275326 0.0115)
(-0.02155749 0.008017157 0.0115)
(-0.02172066 0.007563933 0.0115)
(-0.009792924 0.02081102 0.0115)
(0.003835681 0.02267791 0.0115)
(0.009354942 -0.02101155 0.0115)
(0.009792924 -0.02081102 0.0115)
(0.02267791 0.003835681 0.0115)
(0.01022661 -0.02060137 0.0115)
(0.02081102 -0.009792924 0.0115)
(0.00430977 0.02259261 0.0115)
(0.02259261 0.00430977 0.0115)
(-0.009354942 0.02101155 0.0115)
(-0.02060137 0.01022661 0.0115)
(-0.02081102 0.009792924 0.0115)
(-0.02101155 0.009354942 0.0115)
(0.01065581 -0.02038268 0.0115)
(0.01108033 -0.02015505 0.0115)
(0.0115 -0.01991859 0.0115)
(0.01191462 -0.01967338 0.0115)
(0.0224974 0.004781969 0.0115)
(0.02101155 -0.009354942 0.0115)
(0.004781969 0.0224974 0.0115)
(0.00525207 0.02239231 0.0115)
(-0.01967338 0.01191462 0.0115)
(-0.01991859 0.0115 0.0115)
(-0.02015505 0.01108033 0.0115)
(-0.008912859 0.02120285 0.0115)
(-0.02038268 0.01065581 0.0115)
(0.02239231 0.00525207 0.0115)
(0.01232402 -0.01941954 0.0115)
(0.01272801 -0.01915719 0.0115)
(0.01312641 -0.01888643 0.0115)
(-0.02120285 -0.008912859 0.0115)
(-0.02101155 -0.009354942 0.0115)
(0.02227741 0.005719868 0.0115)
(-0.02081102 -0.009792924 0.0115)
(0.02120285 -0.008912859 0.0115)
(-0.008466865 -0.02138486 0.0115)
(-0.008017157 -0.02155749 0.0115)
(-0.007563933 -0.02172066 0.0115)
(-0.007107391 -0.0218743 0.0115)
(-0.01888643 0.01312641 0.0115)
(-0.01915719 0.01272801 0.0115)
(-0.01941954 0.01232402 0.0115)
(0.005719868 0.02227741 0.0115)
(0.01351906 -0.01860739 0.0115)
(0.01390578 -0.01832019 0.0115)
(0.0142864 -0.01802495 0.0115)
(-0.008466865 0.02138486 0.0115)
(0.02215274 0.006185156 0.0115)
(-0.01802495 0.0142864 0.0115)
(-0.01832019 0.01390578 0.0115)
(-0.01860739 0.01351906 0.0115)
(0.006185156 0.02215274 0.0115)
(0.01466075 -0.0177218 0.0115)
(0.02138486 -0.008466865 0.0115)
(0.01502867 -0.01741089 0.0115)
(0.02201835 0.006647731 0.0115)
(0.01539 -0.01709233 0.0115)
(0.01574458 -0.01676628 0.0115)
(-0.01676628 0.01574458 0.0115)
(-0.01709233 0.01539 0.0115)
(-0.01741089 0.01502867 0.0115)
(-0.0177218 0.01466075 0.0115)
(0.006647731 0.02201835 0.0115)
(-0.008017157 0.02155749 0.0115)
(0.01609226 -0.01643287 0.0115)
(0.0218743 0.007107391 0.0115)
(-0.01643287 0.01609226 0.0115)
(0.007107391 0.0218743 0.0115)
(0.02155749 -0.008017157 0.0115)
(-0.01609226 0.01643287 0.0115)
(0.01643287 -0.01609226 0.0115)
(0.02172066 0.007563933 0.0115)
(-0.007563933 0.02172066 0.0115)
(0.007563933 0.02172066 0.0115)
(-0.0218743 -0.007107391 0.0115)
(-0.02172066 -0.007563933 0.0115)
(-0.02155749 -0.008017157 0.0115)
(-0.02138486 -0.008466865 0.0115)
(0.02155749 0.008017157 0.0115)
(-0.006647731 -0.02201835 0.0115)
(-0.006185156 -0.02215274 0.0115)
(-0.005719868 -0.02227741 0.0115)
(0.008017157 0.02155749 0.0115)
(0.02172066 -0.007563933 0.0115)
(0.02138486 0.008466865 0.0115)
(-0.007107391 0.0218743 0.0115)
(-0.01574458 0.01676628 0.0115)
(0.008466865 0.02138486 0.0115)
(0.01676628 -0.01574458 0.0115)
(0.02120285 0.008912859 0.0115)
(0.008912859 0.02120285 0.0115)
(0.0218743 -0.007107391 0.0115)
(0.02101155 0.009354942 0.0115)
(-0.006647731 0.02201835 0.0115)
(0.009354942 0.02101155 0.0115)
(0.02081102 0.009792924 0.0115)
(0.009792924 0.02081102 0.0115)
(-0.01539 0.01709233 0.0115)
(0.02201835 -0.006647731 0.0115)
(0.02060137 0.01022661 0.0115)
(-0.02227741 -0.005719868 0.0115)
(-0.02215274 -0.006185156 0.0115)
(-0.02201835 -0.006647731 0.0115)
(0.01709233 -0.01539 0.0115)
(0.01022661 0.02060137 0.0115)
(-0.006185156 0.02215274 0.0115)
(0.02038268 0.01065581 0.0115)
(0.01065581 0.02038268 0.0115)
(0.02215274 -0.006185156 0.0115)
(0.02015505 0.01108033 0.0115)
(0.01108033 0.02015505 0.0115)
(-0.005719868 0.02227741 0.0115)
(0.0115 0.01991859 0.0115)
(-0.01643287 -0.01609226 0.0115)
(-0.01609226 -0.01643287 0.0115)
(-0.0224974 -0.004781969 0.0115)
(-0.02239231 -0.00525207 0.0115)
(0.01991859 0.0115 0.0115)
(-0.00525207 -0.02239231 0.0115)
(-0.004781969 -0.0224974 0.0115)
(-0.00430977 -0.02259261 0.0115)
(0.01191462 0.01967338 0.0115)
(0.02227741 -0.005719868 0.0115)
(0.01967338 0.01191462 0.0115)
(0.01232402 0.01941954 0.0115)
(0.01941954 0.01232402 0.0115)
(0.01272801 0.01915719 0.0115)
(-0.01108033 -0.02015505 -0.0115)
(-0.01065581 -0.02038268 -0.0115)
(0.023 -5.633375e-18 -0.0115)
(0.02299496 0.0004816757 -0.0115)
(-0.01022661 -0.02060137 -0.0115)
(-0.009792924 -0.02081102 -0.0115)
(-0.009354942 -0.02101155 -0.0115)
(0.02297983 0.00096314 -0.0115)
(0.02295461 0.001444182 -0.0115)
(-0.008912859 -0.02120285 -0.0115)
(0.02291934 0.00192459 -0.0115)
(-0.008466865 -0.02138486 -0.0115)
(0.022874 0.002404155 -0.0115)
(-0.008017157 -0.02155749 -0.0115)
(0.02281864 0.002882664 -0.0115)
(-0.007563933 -0.02172066 -0.0115)
(0.02275326 0.00335991 -0.0115)
(-0.007107391 -0.0218743 -0.0115)
(0.02267791 0.003835681 -0.0115)
(0.02259261 0.00430977 -0.0115)
(-0.006647731 -0.02201835 -0.0115)
(-0.006185156 -0.02215274 -0.0115)
(0.0224974 0.004781969 -0.0115)
(-0.005719868 -0.02227741 -0.0115)
(0.02239231 0.00525207 -0.0115)
(-0.00525207 -0.02239231 -0.0115)
(0.02227741 0.005719868 -0.0115)
(-0.004781969 -0.0224974 -0.0115)
(0.02215274 0.006185156 -0.0115)
(-0.00430977 -0.02259261 -0.0115)
(-0.003835681 -0.02267791 -0.0115)
(0.02201835 0.006647731 -0.0115)
(0.0218743 0.007107391 -0.0115)
(-0.00335991 -0.02275326 -0.0115)
(0.02172066 0.007563933 -0.0115)
(-0.002882664 -0.02281864 -0.0115)
(0.02155749 0.008017157 -0.0115)
(-0.002404155 -0.022874 -0.0115)
(0.02138486 0.008466865 -0.0115)
(-0.00192459 -0.02291934 -0.0115)
(0.02120285 0.008912859 -0.0115)
(-0.001444182 -0.02295461 -0.0115)
(0.02101155 0.009354942 -0.0115)
(-0.00096314 -0.02297983 -0.0115)
(-0.0004816757 -0.02299496 -0.0115)
(0.02081102 0.009792924 -0.0115)
(7.748738e-17 -0.023 -0.0115)
(0.02060137 0.01022661 -0.0115)
(0.0004816757 -0.02299496 -0.0115)
(0.02038268 0.01065581 -0.0115)
(0.00096314 -0.02297983 -0.0115)
(0.02015505 0.01108033 -0.0115)
(0.001444182 -0.02295461 -0.0115)
(0.00192459 -0.02291934 -0.0115)
(0.01991859 0.0115 -0.0115)
(0.01967338 0.01191462 -0.0115)
(0.01941954 0.01232402 -0.0115)
(0.002404155 -0.022874 -0.0115)
(0.002882664 -0.02281864 -0.0115)
(0.01915719 0.01272801 -0.0115)
(0.00335991 -0.02275326 -0.0115)
(0.003835681 -0.02267791 -0.0115)
(0.01888643 0.01312641 -0.0115)
(0.00430977 -0.02259261 -0.0115)
(0.01860739 0.01351906 -0.0115)
(0.004781969 -0.0224974 -0.0115)
(0.00525207 -0.02239231 -0.0115)
(0.01832019 0.01390578 -0.0115)
(0.01802495 0.0142864 -0.0115)
(0.005719868 -0.02227741 -0.0115)
(0.0177218 0.01466075 -0.0115)
(0.006185156 -0.02215274 -0.0115)
(0.01741089 0.01502867 -0.0115)
(0.01709233 0.01539 -0.0115)
(0.006647731 -0.02201835 -0.0115)
(0.007107391 -0.0218743 -0.0115)
(0.007563933 -0.02172066 -0.0115)
(0.01676628 0.01574458 -0.0115)
(0.008017157 -0.02155749 -0.0115)
(0.01643287 0.01609226 -0.0115)
(0.008466865 -0.02138486 -0.0115)
(0.01609226 0.01643287 -0.0115)
(0.008912859 -0.02120285 -0.0115)
(0.01574458 0.01676628 -0.0115)
(0.009354942 -0.02101155 -0.0115)
(0.01539 0.01709233 -0.0115)
(0.009792924 -0.02081102 -0.0115)
(0.01502867 0.01741089 -0.0115)
(0.01022661 -0.02060137 -0.0115)
(0.01065581 -0.02038268 -0.0115)
(0.01466075 0.0177218 -0.0115)
(0.0142864 0.01802495 -0.0115)
(0.01108033 -0.02015505 -0.0115)
(0.01390578 0.01832019 -0.0115)
(0.0115 -0.01991859 -0.0115)
(0.01351906 0.01860739 -0.0115)
(0.01191462 -0.01967338 -0.0115)
(0.01232402 -0.01941954 -0.0115)
(0.01312641 0.01888643 -0.0115)
(0.01272801 -0.01915719 -0.0115)
(0.01272801 0.01915719 -0.0115)
(0.01232402 0.01941954 -0.0115)
(0.01312641 -0.01888643 -0.0115)
(0.01351906 -0.01860739 -0.0115)
(0.01191462 0.01967338 -0.0115)
(0.01390578 -0.01832019 -0.0115)
(0.0115 0.01991859 -0.0115)
(0.01108033 0.02015505 -0.0115)
(0.0142864 -0.01802495 -0.0115)
(0.01466075 -0.0177218 -0.0115)
(0.01065581 0.02038268 -0.0115)
(0.01502867 -0.01741089 -0.0115)
(0.01539 -0.01709233 -0.0115)
(0.01022661 0.02060137 -0.0115)
(0.009792924 0.02081102 -0.0115)
(0.01574458 -0.01676628 -0.0115)
(0.01609226 -0.01643287 -0.0115)
(0.009354942 0.02101155 -0.0115)
(0.01643287 -0.01609226 -0.0115)
(0.008912859 0.02120285 -0.0115)
(0.008466865 0.02138486 -0.0115)
(0.01676628 -0.01574458 -0.0115)
(0.01709233 -0.01539 -0.0115)
(0.008017157 0.02155749 -0.0115)
(0.01741089 -0.01502867 -0.0115)
(0.007563933 0.02172066 -0.0115)
(0.007107391 0.0218743 -0.0115)
(0.0177218 -0.01466075 -0.0115)
(0.01802495 -0.0142864 -0.0115)
(0.006647731 0.02201835 -0.0115)
(0.01832019 -0.01390578 -0.0115)
(0.01860739 -0.01351906 -0.0115)
(0.006185156 0.02215274 -0.0115)
(0.005719868 0.02227741 -0.0115)
(0.01888643 -0.01312641 -0.0115)
(0.01915719 -0.01272801 -0.0115)
(0.00525207 0.02239231 -0.0115)
(0.01941954 -0.01232402 -0.0115)
(0.004781969 0.0224974 -0.0115)
(0.00430977 0.02259261 -0.0115)
(0.01967338 -0.01191462 -0.0115)
(0.01991859 -0.0115 -0.0115)
(0.003835681 0.02267791 -0.0115)
(0.02015505 -0.01108033 -0.0115)
(0.02038268 -0.01065581 -0.0115)
(0.00335991 0.02275326 -0.0115)
(0.002882664 0.02281864 -0.0115)
(0.02060137 -0.01022661 -0.0115)
(0.02081102 -0.009792924 -0.0115)
(0.002404155 0.022874 -0.0115)
(0.02101155 -0.009354942 -0.0115)
(0.00192459 0.02291934 -0.0115)
(0.001444182 0.02295461 -0.0115)
(0.02120285 -0.008912859 -0.0115)
(0.00096314 0.02297983 -0.0115)
(0.02138486 -0.008466865 -0.0115)
(0.0004816757 0.02299496 -0.0115)
(-3.698682e-18 0.023 -0.0115)
(0.02155749 -0.008017157 -0.0115)
(0.02172066 -0.007563933 -0.0115)
(0.0218743 -0.007107391 -0.0115)
(-0.0004816757 0.02299496 -0.0115)
(0.02201835 -0.006647731 -0.0115)
(-0.00096314 0.02297983 -0.0115)
(-0.001444182 0.02295461 -0.0115)
(0.02215274 -0.006185156 -0.0115)
(0.02227741 -0.005719868 -0.0115)
(0.02239231 -0.00525207 -0.0115)
(-0.00192459 0.02291934 -0.0115)
(-0.002404155 0.022874 -0.0115)
(-0.002882664 0.02281864 -0.0115)
(0.0224974 -0.004781969 -0.0115)
(0.02259261 -0.00430977 -0.0115)
(-0.00335991 0.02275326 -0.0115)
(0.02267791 -0.003835681 -0.0115)
(-0.003835681 0.02267791 -0.0115)
(0.02275326 -0.00335991 -0.0115)
(0.02281864 -0.002882664 -0.0115)
(-0.00430977 0.02259261 -0.0115)
(-0.004781969 0.0224974 -0.0115)
(0.022874 -0.002404155 -0.0115)
(0.02291934 -0.00192459 -0.0115)
(-0.00525207 0.02239231 -0.0115)
(0.02295461 -0.001444182 -0.0115)
(-0.005719868 0.02227741 -0.0115)
(-0.006185156 0.02215274 -0.0115)
(0.02297983 -0.00096314 -0.0115)
(0.02299496 -0.0004816757 -0.0115)
(-0.006647731 0.02201835 -0.0115)
(-0.007107391 0.0218743 -0.0115)
(-0.007563933 0.02172066 -0.0115)
(-0.008017157 0.02155749 -0.0115)
(-0.008466865 0.02138486 -0.0115)
(-0.008912859 0.02120285 -0.0115)
(-0.009354942 0.02101155 -0.0115)
(-0.009792924 0.02081102 -0.0115)
(-0.01022661 0.02060137 -0.0115)
(-0.01065581 0.02038268 -0.0115)
(-0.01108033 0.02015505 -0.0115)
(-0.0115 0.01991859 -0.0115)
(-0.01191462 0.01967338 -0.0115)
(-0.01232402 0.01941954 -0.0115)
(-0.01272801 0.01915719 -0.0115)
(-0.01312641 0.01888643 -0.0115)
(-0.01351906 0.01860739 -0.0115)
(-0.01390578 0.01832019 -0.0115)
(-0.0142864 0.01802495 -0.0115)
(-0.01466075 0.0177218 -0.0115)
(-0.01502867 0.01741089 -0.0115)
(-0.01539 0.01709233 -0.0115)
(-0.01574458 0.01676628 -0.0115)
(-0.01609226 0.01643287 -0.0115)
(-0.01643287 0.01609226 -0.0115)
(-0.01676628 0.01574458 -0.0115)
(-0.01709233 0.01539 -0.0115)
(-0.01741089 0.01502867 -0.0115)
(-0.0177218 0.01466075 -0.0115)
(-0.01802495 0.0142864 -0.0115)
(-0.01832019 0.01390578 -0.0115)
(-0.01860739 0.01351906 -0.0115)
(-0.01888643 0.01312641 -0.0115)
(-0.01915719 0.01272801 -0.0115)
(-0.01941954 0.01232402 -0.0115)
(-0.01967338 0.01191462 -0.0115)
(-0.01991859 0.0115 -0.0115)
(-0.02015505 0.01108033 -0.0115)
(-0.02038268 0.01065581 -0.0115)
(-0.02060137 0.01022661 -0.0115)
(-0.02081102 0.009792924 -0.0115)
(-0.02101155 0.009354942 -0.0115)
(-0.02120285 0.008912859 -0.0115)
(-0.02138486 0.008466865 -0.0115)
(-0.02155749 0.008017157 -0.0115)
(-0.02172066 0.007563933 -0.0115)
(-0.0218743 0.007107391 -0.0115)
(-0.02201835 0.006647731 -0.0115)
(-0.02215274 0.006185156 -0.0115)
(-0.02227741 0.005719868 -0.0115)
(-0.02239231 0.00525207 -0.0115)
(-0.0224974 0.004781969 -0.0115)
(-0.02259261 0.00430977 -0.0115)
(-0.02267791 0.003835681 -0.0115)
(-0.02275326 0.00335991 -0.0115)
(-0.02281864 0.002882664 -0.0115)
(-0.022874 0.002404155 -0.0115)
(-0.02291934 0.00192459 -0.0115)
(-0.02295461 0.001444182 -0.0115)
(-0.02297983 0.00096314 -0.0115)
(-0.02299496 0.0004816757 -0.0115)
(-0.023 -4.825357e-17 -0.0115)
(-0.02299496 -0.0004816757 -0.0115)
(-0.02297983 -0.00096314 -0.0115)
(-0.02295461 -0.001444182 -0.0115)
(-0.02291934 -0.00192459 -0.0115)
(-0.022874 -0.002404155 -0.0115)
(-0.02281864 -0.002882664 -0.0115)
(-0.02275326 -0.00335991 -0.0115)
(-0.02267791 -0.003835681 -0.0115)
(-0.02259261 -0.00430977 -0.0115)
(-0.0224974 -0.004781969 -0.0115)
(-0.02239231 -0.00525207 -0.0115)
(-0.02227741 -0.005719868 -0.0115)
(-0.02215274 -0.006185156 -0.0115)
(-0.02201835 -0.006647731 -0.0115)
(-0.0218743 -0.007107391 -0.0115)
(-0.02172066 -0.007563933 -0.0115)
(-0.02155749 -0.008017157 -0.0115)
(-0.02138486 -0.008466865 -0.0115)
(-0.02120285 -0.008912859 -0.0115)
(-0.02101155 -0.009354942 -0.0115)
(-0.02081102 -0.009792924 -0.0115)
(-0.02060137 -0.01022661 -0.0115)
(-0.02038268 -0.01065581 -0.0115)
(-0.02015505 -0.01108033 -0.0115)
(-0.01991859 -0.0115 -0.0115)
(-0.01967338 -0.01191462 -0.0115)
(-0.01941954 -0.01232402 -0.0115)
(-0.01915719 -0.01272801 -0.0115)
(-0.01888643 -0.01312641 -0.0115)
(-0.01860739 -0.01351906 -0.0115)
(-0.01832019 -0.01390578 -0.0115)
(-0.01802495 -0.0142864 -0.0115)
(-0.0177218 -0.01466075 -0.0115)
(-0.01741089 -0.01502867 -0.0115)
(-0.01709233 -0.01539 -0.0115)
(-0.01676628 -0.01574458 -0.0115)
(-0.01643287 -0.01609226 -0.0115)
(-0.01609226 -0.01643287 -0.0115)
(-0.01574458 -0.01676628 -0.0115)
(-0.01539 -0.01709233 -0.0115)
(-0.01502867 -0.01741089 -0.0115)
(-0.01466075 -0.0177218 -0.0115)
(-0.0142864 -0.01802495 -0.0115)
(-0.01390578 -0.01832019 -0.0115)
(-0.01351906 -0.01860739 -0.0115)
(-0.01312641 -0.01888643 -0.0115)
(-0.01272801 -0.01915719 -0.0115)
(-0.01232402 -0.01941954 -0.0115)
(-0.01191462 -0.01967338 -0.0115)
(-0.0115 -0.01991859 -0.0115)
(0.002 -4.898587e-19 -0.013)
(0.001994904 0.0001426784 -0.013)
(0.001979643 0.0002846297 -0.013)
(0.001954294 0.0004251306 -0.013)
(0.001918986 0.0005634651 -0.013)
(0.001873899 0.0006989284 -0.013)
(0.001819264 0.0008308301 -0.013)
(0.001755358 0.000958498 -0.013)
(0.001682507 0.001081282 -0.013)
(0.001601083 0.001198555 -0.013)
(0.001511499 0.001309721 -0.013)
(0.001414214 0.001414214 -0.013)
(0.001309721 0.001511499 -0.013)
(0.001198555 0.001601083 -0.013)
(0.001081282 0.001682507 -0.013)
(0.000958498 0.001755358 -0.013)
(0.0008308301 0.001819264 -0.013)
(0.0006989284 0.001873899 -0.013)
(0.0005634651 0.001918986 -0.013)
(0.0004251306 0.001954294 -0.013)
(0.0002846297 0.001979643 -0.013)
(0.0001426784 0.001994904 -0.013)
(5.665539e-19 0.002 -0.013)
(-0.0001426784 0.001994904 -0.013)
(-0.0002846297 0.001979643 -0.013)
(-0.0004251306 0.001954294 -0.013)
(-0.0005634651 0.001918986 -0.013)
(-0.0006989284 0.001873899 -0.013)
(-0.0008308301 0.001819264 -0.013)
(-0.000958498 0.001755358 -0.013)
(-0.001081282 0.001682507 -0.013)
(-0.001198555 0.001601083 -0.013)
(-0.001309721 0.001511499 -0.013)
(-0.001414214 0.001414214 -0.013)
(-0.001511499 0.001309721 -0.013)
(-0.001601083 0.001198555 -0.013)
(-0.001682507 0.001081282 -0.013)
(-0.001755358 0.000958498 -0.013)
(-0.001819264 0.0008308301 -0.013)
(-0.001873899 0.0006989284 -0.013)
(-0.001918986 0.0005634651 -0.013)
(-0.001954294 0.0004251306 -0.013)
(-0.001979643 0.0002846297 -0.013)
(-0.001994904 0.0001426784 -0.013)
(-0.002 2.021286e-18 -0.013)
(-0.001994904 -0.0001426784 -0.013)
(-0.001979643 -0.0002846297 -0.013)
(-0.001954294 -0.0004251306 -0.013)
(-0.001918986 -0.0005634651 -0.013)
(-0.001873899 -0.0006989284 -0.013)
(-0.001819264 -0.0008308301 -0.013)
(-0.001755358 -0.000958498 -0.013)
(-0.001682507 -0.001081282 -0.013)
(-0.001601083 -0.001198555 -0.013)
(-0.001511499 -0.001309721 -0.013)
(-0.001414214 -0.001414214 -0.013)
(-0.001309721 -0.001511499 -0.013)
(-0.001198555 -0.001601083 -0.013)
(-0.001081282 -0.001682507 -0.013)
(-0.000958498 -0.001755358 -0.013)
(-0.0008308301 -0.001819264 -0.013)
(-0.0006989284 -0.001873899 -0.013)
(-0.0005634651 -0.001918986 -0.013)
(-0.0004251306 -0.001954294 -0.013)
(-0.0002846297 -0.001979643 -0.013)
(-0.0001426784 -0.001994904 -0.013)
(-3.920108e-18 -0.002 -0.013)
(0.0001426784 -0.001994904 -0.013)
(0.0002846297 -0.001979643 -0.013)
(0.0004251306 -0.001954294 -0.013)
(0.0005634651 -0.001918986 -0.013)
(0.0006989284 -0.001873899 -0.013)
(0.0008308301 -0.001819264 -0.013)
(0.000958498 -0.001755358 -0.013)
(0.001081282 -0.001682507 -0.013)
(0.001198555 -0.001601083 -0.013)
(0.001309721 -0.001511499 -0.013)
(0.001414214 -0.001414214 -0.013)
(0.001511499 -0.001309721 -0.013)
(0.001601083 -0.001198555 -0.013)
(0.001682507 -0.001081282 -0.013)
(0.001755358 -0.000958498 -0.013)
(0.001819264 -0.0008308301 -0.013)
(0.001873899 -0.0006989284 -0.013)
(0.001918986 -0.0005634651 -0.013)
(0.001954294 -0.0004251306 -0.013)
(0.001979643 -0.0002846297 -0.013)
(0.001994904 -0.0001426784 -0.013)
(0.002 -4.898587e-19 0.0115)
(0.001994904 0.0001426784 0.0115)
(0.001979643 0.0002846297 0.0115)
(0.001954294 0.0004251306 0.0115)
(0.001918986 0.0005634651 0.0115)
(0.001873899 0.0006989284 0.0115)
(0.001819264 0.0008308301 0.0115)
(0.001755358 0.000958498 0.0115)
(0.001682507 0.001081282 0.0115)
(0.001601083 0.001198555 0.0115)
(0.001511499 0.001309721 0.0115)
(0.001414214 0.001414214 0.0115)
(0.001309721 0.001511499 0.0115)
(0.001198555 0.001601083 0.0115)
(0.001081282 0.001682507 0.0115)
(0.000958498 0.001755358 0.0115)
(0.0008308301 0.001819264 0.0115)
(0.0006989284 0.001873899 0.0115)
(0.0005634651 0.001918986 0.0115)
(0.0004251306 0.001954294 0.0115)
(0.0002846297 0.001979643 0.0115)
(0.0001426784 0.001994904 0.0115)
(5.665539e-19 0.002 0.0115)
(-0.0001426784 0.001994904 0.0115)
(-0.0002846297 0.001979643 0.0115)
(-0.0004251306 0.001954294 0.0115)
(-0.0005634651 0.001918986 0.0115)
(-0.0006989284 0.001873899 0.0115)
(-0.0008308301 0.001819264 0.0115)
(-0.000958498 0.001755358 0.0115)
(-0.001081282 0.001682507 0.0115)
(-0.001198555 0.001601083 0.0115)
(-0.001309721 0.001511499 0.0115)
(-0.001414214 0.001414214 0.0115)
(-0.001511499 0.001309721 0.0115)
(-0.001601083 0.001198555 0.0115)
(-0.001682507 0.001081282 0.0115)
(-0.001755358 0.000958498 0.0115)
(-0.001819264 0.0008308301 0.0115)
(-0.001873899 0.0006989284 0.0115)
(-0.001918986 0.0005634651 0.0115)
(-0.001954294 0.0004251306 0.0115)
(-0.001979643 0.0002846297 0.0115)
(-0.001994904 0.0001426784 0.0115)
(-0.002 2.021286e-18 0.0115)
(-0.001994904 -0.0001426784 0.0115)
(-0.001979643 -0.0002846297 0.0115)
(-0.001954294 -0.0004251306 0.0115)
(-0.001918986 -0.0005634651 0.0115)
(-0.001873899 -0.0006989284 0.0115)
(-0.001819264 -0.0008308301 0.0115)
(-0.001755358 -0.000958498 0.0115)
(-0.001682507 -0.001081282 0.0115)
(-0.001601083 -0.001198555 0.0115)
(-0.001511499 -0.001309721 0.0115)
(-0.001414214 -0.001414214 0.0115)
(-0.001309721 -0.001511499 0.0115)
(-0.001198555 -0.001601083 0.0115)
(-0.001081282 -0.001682507 0.0115)
(-0.000958498 -0.001755358 0.0115)
(-0.0008308301 -0.001819264 0.0115)
(-0.0006989284 -0.001873899 0.0115)
(-0.0005634651 -0.001918986 0.0115)
(-0.0004251306 -0.001954294 0.0115)
(-0.0002846297 -0.001979643 0.0115)
(-0.0001426784 -0.001994904 0.0115)
(-3.920108e-18 -0.002 0.0115)
(0.0001426784 -0.001994904 0.0115)
(0.0002846297 -0.001979643 0.0115)
(0.0004251306 -0.001954294 0.0115)
(0.0005634651 -0.001918986 0.0115)
(0.0006989284 -0.001873899 0.0115)
(0.0008308301 -0.001819264 0.0115)
(0.000958498 -0.001755358 0.0115)
(0.001081282 -0.001682507 0.0115)
(0.001198555 -0.001601083 0.0115)
(0.001309721 -0.001511499 0.0115)
(0.001414214 -0.001414214 0.0115)
(0.001511499 -0.001309721 0.0115)
(0.001601083 -0.001198555 0.0115)
(0.001682507 -0.001081282 0.0115)
(0.001755358 -0.000958498 0.0115)
(0.001819264 -0.0008308301 0.0115)
(0.001873899 -0.0006989284 0.0115)
(0.001918986 -0.0005634651 0.0115)
(0.001954294 -0.0004251306 0.0115)
(0.001979643 -0.0002846297 0.0115)
(0.001994904 -0.0001426784 0.0115)
(0.001198555 0.001601083 -0.0115)
(0.001081282 0.001682507 -0.0115)
(0.001682507 0.001081282 -0.0115)
(0.001601083 0.001198555 -0.0115)
(0.001511499 0.001309721 -0.0115)
(-0.0002846297 0.001979643 -0.0115)
(-0.0004251306 0.001954294 -0.0115)
(-0.0004251306 -0.001954294 -0.0115)
(-0.0002846297 -0.001979643 -0.0115)
(0.001309721 0.001511499 -0.0115)
(0.001954294 -0.0004251306 -0.0115)
(0.001979643 -0.0002846297 -0.0115)
(0.001414214 0.001414214 -0.0115)
(-0.001511499 -0.001309721 -0.0115)
(-0.001414214 -0.001414214 -0.0115)
(-0.001979643 -0.0002846297 -0.0115)
(-0.001954294 -0.0004251306 -0.0115)
(-0.001198555 0.001601083 -0.0115)
(-0.001309721 0.001511499 -0.0115)
(0.001511499 -0.001309721 -0.0115)
(0.001601083 -0.001198555 -0.0115)
(-0.0001426784 -0.001994904 -0.0115)
(-0.001309721 -0.001511499 -0.0115)