/*--------------------------------*- C++ -*----------------------------------*\
  =========                 |
  \\      /  F ield         | OpenFOAM: The Open Source CFD Toolbox
   \\    /   O peration     | Website:  https://openfoam.org
    \\  /    A nd           | Version:  8
     \\/     M anipulation  |
\*---------------------------------------------------------------------------*/
FoamFile
{
    version     2.0;
    format      ascii;
    class       featureEdgeMesh;
    location    "constant/triSurface";
    object      geo_100_mL_Wheel.eMesh;
}
// * * * * * * * * * * * * * * * * * * * * * * * * * * * * * * * * * * * * * //


// points:

1940
(
(0.002581651 -0.00356239 -2.328306e-10)
(-0.00356239 0.002581651 -2.328306e-10)
(0.00356239 -0.002581651 -2.328306e-10)
(-0.002581651 0.00356239 -2.328306e-10)
(0.002241496 -0.0013346 0.0075)
(0.0013346 -0.002241496 0.0075)
(-0.0013346 0.002241496 0.0075)
(-0.002241496 0.0013346 0.0075)
(0.002367957 -0.003274853 0.0075)
(0.003274853 -0.002367957 0.0075)
(-0.002367957 0.003274853 0.0075)
(-0.003274853 0.002367957 0.0075)
(0.000384355 -0.01634548 0.009915379)
(-0.01634548 0.0003843128 0.009915243)
(0.01634548 -0.000384355 -0.009915379)
(-0.007775296 -0.01230078 0.0095)
(-0.01230078 -0.007775296 0.0095)
(0.008135877 -0.01266136 -0.0095)
(-0.008135877 -0.01266136 -0.0095)
(-0.01266136 -0.008135877 -0.0095)
(-0.008135877 0.01266136 -0.0095)
(0.01266136 -0.008135877 -0.0095)
(-0.01266136 0.008135877 -0.0095)
(-0.0003843128 0.01634548 -0.009915239)
(0.008135877 0.01266136 0.0095)
(0.01266136 0.008135877 0.0095)
(0.01266136 -0.008135877 0.0095)
(-0.008135877 0.01266136 0.0095)
(0.008135877 -0.01266136 0.0095)
(-0.01266136 0.008135877 0.0095)
(0.01230078 0.007775296 -0.0095)
(0.007775296 0.01230078 -0.0095)
(0.0172962 -0.01277072 -0.0095)
(-0.0172962 -0.01277072 -0.0095)
(0.0172962 0.01277072 -0.0095)
(-0.01277072 -0.0172962 0.0095)
(0.0172962 -0.01277072 0.0095)
(0.01277072 -0.0172962 -0.0095)
(-0.01277072 0.0172962 -0.0095)
(0.01277072 0.0172962 0.0095)
(-0.0172962 0.01277072 0.0095)
(-0.01277072 -0.0172962 -0.0095)
(0.01277072 0.0172962 -0.0095)
(-0.0172962 -0.01277072 0.0095)
(-0.01277072 0.0172962 0.0095)
(-0.0172962 0.01277072 -0.0095)
(0.0172962 0.01277072 0.0095)
(0.01277072 -0.0172962 0.0095)
(0.002367957 -0.003274853 -0.0075)
(0.0013346 -0.002241496 -0.0075)
(0.003274853 -0.002367957 -0.0075)
(0.002241496 -0.0013346 -0.0075)
(-0.0013346 0.002241496 -0.0075)
(-0.002241496 0.0013346 -0.0075)
(-0.002367957 0.003274853 -0.0075)
(-0.003274853 0.002367957 -0.0075)
(0.009074862 -0.01360034 0.0057)
(-0.01360034 0.009074862 0.0057)
(0.01360034 -0.009074862 -0.0057)
(-0.009074862 0.01360034 -0.0057)
(0.002584788 -0.003560114 -2.328306e-10)
(-0.004047082 0.0009327431 0.0047)
(0.0009327431 -0.004047082 0.0047)
(-0.002343857 0.003428588 0.0047)
(0.003520109 -0.002204023 0.0047)
(0.003560116 -0.002584787 -2.328306e-10)
(-0.002584788 0.003560114 -2.328306e-10)
(-0.003560116 0.002584787 -2.328306e-10)
(0.004580072 -0.003222257 0.0047)
(-0.00335659 0.004482555 0.0047)
(0.004432671 -0.003422201 5.378388e-08)
(0.002204023 -0.003520109 -0.0047)
(-0.003428588 0.002343857 -0.0047)
(-0.0009327431 0.004047082 -0.0047)
(0.004047082 -0.0009327431 -0.0047)
(0.003422201 -0.004432671 -5.424954e-08)
(0.001552433 -0.005636432 0.0047)
(0.009074862 -0.01360034 0.001549972)
(0.008135877 -0.01266136 0.001731455)
(-0.0004127932 -0.01457832 0.008888777)
(-0.0005797451 -0.006049032 0.009096944)
(-0.005636432 0.001552433 0.0047)
(-0.01457832 -0.0004127894 0.008888775)
(-0.006049033 -0.000579764 0.009096981)
(-0.01266136 0.008135877 0.001731455)
(-0.01360034 0.009074862 0.001549972)
(-0.004432635 0.003422243 -5.424954e-08)
(-0.003422243 0.004432635 5.378388e-08)
(0.001320479 -0.002239718 0.007)
(-0.001320479 0.002239718 0.007)
(-0.002239718 0.001320479 0.007)
(0.002239718 -0.001320479 0.007)
(0.001808028 -0.005300098 0.007)
(0.002367039 -0.003286278 0.007)
(-0.003897124 -0.001817259 0.007)
(-0.002367039 0.003286278 0.007)
(0.003286278 -0.002367039 0.007)
(-0.003286278 0.002367039 0.007)
(-0.002521702 -0.005407806 0.007)
(-0.001817259 -0.003897124 0.007)
(-0.005407806 -0.002521702 0.007)
(-0.005300098 0.001808028 0.007)
(-0.004482555 0.00335659 -0.0047)
(0.003222257 -0.004580072 -0.0047)
(0.01360034 -0.009074862 -0.001549972)
(0.01266136 -0.008135877 -0.001731455)
(0.005636432 -0.001552433 -0.0047)
(0.01457832 0.0004127932 -0.00888878)
(0.006049032 0.0005797451 -0.00909694)
(-0.001552433 0.005636432 -0.0047)
(0.000579764 0.006049033 -0.009096979)
(0.0004127894 0.01457832 -0.008888769)
(-0.008135877 0.01266136 -0.001731455)
(-0.009074862 0.01360034 -0.001549972)
(0.005300098 -0.001808028 -0.007000001)
(-0.007919599 -0.01244508 0.0057)
(-0.01277072 -0.0172962 0.0057)
(0.01277072 -0.0172962 0.0057)
(-0.001969491 -0.01455046 0.007)
(-0.007870243 -0.01239573 0.007)
(-0.01064196 -0.01064196 -2.328306e-10)
(-0.01239573 -0.007870243 0.007)
(-0.01244508 -0.007919599 0.0057)
(-0.01455046 -0.00196949 0.007)
(-0.001761889 -0.01625478 0.006999978)
(0.008135877 -0.01266136 -0.0057)
(0.008135877 -0.01266136 -0.007000001)
(-0.008135877 -0.01266136 -0.007000001)
(-0.008135877 -0.01266136 -0.0057)
(-0.008135877 0.01266136 -0.007000001)
(-0.01266136 -0.008135877 -0.0057)
(-0.01266136 -0.008135877 -0.007000001)
(-0.01266136 0.008135877 -0.0057)
(-0.01266136 0.008135877 -0.007000001)
(0.01266136 -0.008135877 -0.007000001)
(-0.001808028 0.005300098 -0.007000001)
(-0.01625478 -0.00176194 0.006999978)
(-0.0172962 -0.01277072 0.0057)
(-0.0172962 0.01277072 0.0057)
(-0.01277072 -0.0172962 0.007)
(0.008135877 -0.01266136 0.007)
(0.01277072 -0.0172962 0.007)
(0.008135877 0.01266136 0.0057)
(0.008135877 0.01266136 0.007)
(0.01266136 0.008135877 0.007)
(0.01266136 0.008135877 0.0057)
(-0.01266136 0.008135877 0.007)
(0.01266136 -0.008135877 0.0057)
(0.01266136 -0.008135877 0.007)
(-0.008135877 0.01266136 0.007)
(-0.008135877 0.01266136 0.0057)
(0.01064196 0.01064196 -2.328306e-10)
(-0.0172962 -0.01277072 0.007)
(-0.0172962 0.01277072 0.007)
(0.0172962 -0.01277072 -0.0057)
(0.01244508 0.007919599 -0.0057)
(0.0172962 0.01277072 -0.0057)
(0.01239573 0.007870243 -0.007000001)
(0.007870243 0.01239573 -0.007000001)
(0.007919599 0.01244508 -0.0057)
(0.00196949 0.01455046 -0.007000001)
(0.01455046 0.001969491 -0.007000001)
(0.01625478 0.001761889 -0.00699998)
(0.005407806 0.002521702 -0.007000001)
(0.002521702 0.005407806 -0.007000001)
(0.00176194 0.01625478 -0.00699998)
(-0.01277072 0.0172962 -0.0057)
(0.01277072 0.0172962 -0.0057)
(0.001817259 0.003897124 -0.007000001)
(-0.002239718 0.001320479 -0.007000001)
(-0.003286278 0.002367039 -0.007000001)
(0.003286278 -0.002367039 -0.007000001)
(-0.002367039 0.003286278 -0.007000001)
(-0.001320479 0.002239718 -0.007000001)
(0.003897124 0.001817259 -0.007000001)
(0.002367039 -0.003286278 -0.007000001)
(0.001320479 -0.002239718 -0.007000001)
(0.002239718 -0.001320479 -0.007000001)
(0.0172962 0.01277072 -0.007000001)
(0.0172962 -0.01277072 -0.007000001)
(0.01277072 -0.0172962 -0.0057)
(-0.0172962 -0.01277072 -0.007000001)
(-0.01277072 0.0172962 0.0057)
(-0.01277072 0.0172962 0.007)
(0.0172962 -0.01277072 0.007)
(0.01277072 -0.0172962 -0.007000001)
(-0.01277072 0.0172962 -0.007000001)
(0.01277072 0.0172962 0.007)
(-0.0172962 -0.01277072 -0.0057)
(0.01277072 0.0172962 0.0057)
(0.0172962 -0.01277072 0.0057)
(-0.01277072 -0.0172962 -0.007000001)
(-0.01277072 -0.0172962 -0.0057)
(0.01277072 0.0172962 -0.007000001)
(-0.0172962 0.01277072 -0.0057)
(-0.0172962 0.01277072 -0.007000001)
(0.0172962 0.01277072 0.007)
(0.0172962 0.01277072 0.0057)
(-0.01209517 -0.008955974 -2.328306e-10)
(-0.008955974 -0.01209517 -2.328306e-10)
(-0.008920976 -0.01211933 -2.328306e-10)
(-0.01211933 -0.008920976 -2.328306e-10)
(-0.008955975 -0.01209517 -2.328306e-10)
(-0.01209517 -0.008955975 -2.328306e-10)
(0.01209517 0.008955975 -2.328306e-10)
(0.01211933 0.008920976 -2.328306e-10)
(0.008920976 0.01211933 -2.328306e-10)
(0.008955975 0.01209517 -2.328306e-10)
(0.008955974 0.01209517 -2.328306e-10)
(0.01209517 0.008955974 -2.328306e-10)
(-0.003981574 0.001385621 0.003432993)
(-0.003947473 0.001562873 0.002936476)
(-0.003875607 0.001797481 0.002270604)
(-0.003788639 0.002081389 0.00146481)
(0.002203266 -0.003733457 0.0011079)
(-0.003750164 0.002166462 0.001215709)
(-0.003733511 0.002203282 0.001107897)
(0.001385449 -0.003977781 0.003433116)
(0.001080442 -0.004029666 0.004286847)
(0.002080287 -0.003789055 0.001467977)
(0.001797477 -0.003875573 0.002270606)
(0.001561 -0.003947918 0.002941741)
(-0.004153177 0 0.0047)
(-0.004011661 -0.001074921 0.0047)
(-0.003596757 -0.002076589 0.0047)
(-0.00293674 -0.00293674 0.0047)
(-0.002076589 -0.003596757 0.0047)
(-0.001074921 -0.004011661 0.0047)
(1.017235e-18 -0.004153177 0.0047)
(0.004011661 -0.001074921 0.0047)
(0.003596757 -0.002076589 0.0047)
(0.004153177 0 0.0047)
(0.004011661 0.001074921 0.0047)
(0.003596757 0.002076589 0.0047)
(0.00293674 0.00293674 0.0047)
(0.002076589 0.003596757 0.0047)
(0.001074921 0.004011661 0.0047)
(1.335764e-18 0.004153177 0.0047)
(-0.001074921 0.004011661 0.0047)
(-0.002076589 0.003596757 0.0047)
(-0.002419424 0.003469963 0.003231091)
(0.003535177 -0.002333273 0.003124286)
(-0.004042824 0.0009701416 0.004595455)
(-0.004030254 0.001080551 0.004286816)
(-0.00401574 0.001208028 0.003930463)
(0.001031612 -0.004037973 0.004423524)
(0.0009701395 -0.004043636 0.004595425)
(0.002166444 -0.003750103 0.001215711)
(0.004796768 -0.002889812 0.0047)
(0.003454234 0.004407751 0.0047)
(0.004407751 0.003454234 0.0047)
(0.005105687 0.002300426 0.0047)
(0.005507573 0.001013229 0.0047)
(0.005590107 -0.0003327187 0.0047)
(0.005348502 -0.001659374 0.0047)
(-0.002889812 0.004796768 0.0047)
(-0.001659374 0.005348502 0.0047)
(-0.0003327187 0.005590107 0.0047)
(0.001013229 0.005507573 0.0047)
(0.002300426 0.005105687 0.0047)
(0.004511563 -0.003317499 0.002482953)
(0.002076589 -0.003596757 -0.0047)
(0.002333273 -0.003535177 -0.003124291)
(0.003733457 -0.002203266 -0.001107901)
(-0.002081389 0.003788639 -0.00146481)
(-0.002166462 0.003750164 -0.001215709)
(0.001074921 -0.004011661 -0.0047)
(-1.526367e-17 -0.004153177 -0.0047)
(-0.001074921 -0.004011661 -0.0047)
(-0.002076589 -0.003596757 -0.0047)
(-0.00293674 -0.00293674 -0.0047)
(-0.003596757 -0.002076589 -0.0047)
(-0.004011661 -0.001074921 -0.0047)
(-0.004153177 0 -0.0047)
(-0.004011661 0.001074921 -0.0047)
(-0.003596757 0.002076589 -0.0047)
(-0.003469963 0.002419424 -0.00323109)
(0.003977781 -0.001385449 -0.00343312)
(0.004029666 -0.001080442 -0.00428685)
(0.003947918 -0.001561 -0.002941741)
(-0.002203282 0.003733511 -0.001107897)
(1.567724e-17 0.004153177 -0.0047)
(0.001074921 0.004011661 -0.0047)
(0.002076589 0.003596757 -0.0047)
(0.00293674 0.00293674 -0.0047)
(0.003596757 0.002076589 -0.0047)
(0.004011661 0.001074921 -0.0047)
(0.004153177 0 -0.0047)
(0.003750103 -0.002166444 -0.001215711)
(-0.0009701416 0.004042824 -0.00459546)
(-0.001080551 0.004030254 -0.004286821)
(-0.001208028 0.00401574 -0.00393046)
(-0.001385621 0.003981574 -0.003432991)
(0.003789055 -0.002080287 -0.001467978)
(0.003875573 -0.001797477 -0.002270607)
(-0.001562873 0.003947473 -0.002936476)
(-0.001797481 0.003875607 -0.002270605)
(0.004037973 -0.001031612 -0.00442352)
(0.004043636 -0.0009701395 -0.00459543)
(0.005561893 -0.006702154 -2.328306e-10)
(0.00500422 -0.006107075 -2.328306e-10)
(0.003335335 -0.004348154 -2.328306e-10)
(0.003435687 -0.00445392 -2.328306e-10)
(0.004502356 -0.005578136 -2.328306e-10)
(0.006259341 -0.01510441 0.003886724)
(0.005753996 -0.01529474 0.004281538)
(0.008595925 -0.0138978 0.001962103)
(0.005260407 -0.01548065 0.004667167)
(0.005100549 -0.01553406 0.004790386)
(0.00568813 -0.01531955 0.004332998)
(-0.0004927971 -0.01030636 0.008970526)
(-0.0004943406 -0.01023104 0.008972658)
(-0.0004790615 -0.01097665 0.008951557)
(-0.0005242245 -0.00877273 0.009013928)
(-0.000526192 -0.008676716 0.009016645)
(-0.0005556544 -0.007238977 0.009057333)
(0.005007058 -0.0155614 0.004861619)
(0.004245461 -0.01578418 0.005441897)
(0.004074973 -0.01583405 0.005571795)
(0.007912753 -0.01429986 0.002541852)
(0.007430594 -0.0145574 0.002941436)
(0.007229395 -0.01466487 0.003108178)
(0.007212586 -0.01467248 0.003121668)
(0.003904942 -0.01587684 0.0057)
(-0.0004355804 -0.01333984 0.008910364)
(-0.0004349395 -0.01337467 0.008909758)
(0.008168601 -0.01416321 0.002329821)
(0.006490038 -0.01499988 0.003701571)
(-0.0005668739 -0.006691476 0.009072828)
(-0.0005580484 -0.007122153 0.00906064)
(0.000259169 -0.005840569 0.0047)
(-0.00361609 -0.004593834 0.0047)
(-0.004593834 -0.00361609 0.0047)
(-0.005314603 -0.002436064 0.0047)
(-0.005738078 -0.001119767 0.0047)
(-0.005840569 0.000259169 0.0047)
(-0.001119767 -0.005738078 0.0047)
(-0.002436064 -0.005314603 0.0047)
(-0.01578418 0.004245464 0.005441894)
(-0.0155614 0.005007061 0.004861616)
(-0.01467248 0.007212588 0.003121667)
(-0.01466487 0.007229395 0.003108178)
(-0.01510441 0.006259341 0.003886724)
(-0.01499988 0.006490041 0.003701569)
(-0.0145574 0.007430594 0.002941436)
(-0.01429986 0.007912755 0.002541851)
(-0.01416321 0.008168601 0.002329821)
(-0.0138978 0.008595927 0.001962102)
(-0.01337467 -0.0004349413 0.008909761)
(-0.01531955 0.00568813 0.004332998)
(-0.01529474 0.005753999 0.004281536)
(-0.01548065 0.005260407 0.004667167)
(-0.006686626 -0.0005669986 0.00907305)
(-0.007122153 -0.0005580726 0.009060718)
(-0.004348154 0.003335335 -2.328306e-10)
(-0.00445392 0.003435687 -2.328306e-10)
(-0.01583405 0.004074973 0.005571795)
(-0.01587684 0.003904942 0.0057)
(-0.01097672 -0.000479073 0.00895157)
(-0.01333984 -0.0004355824 0.008910368)
(-0.006990555 0.005834416 -2.328306e-10)
(-0.006701348 0.005562652 -2.328306e-10)
(-0.006107075 0.00500422 -2.328306e-10)
(-0.005578136 0.004502356 -2.328306e-10)
(-0.007238979 -0.0005556782 0.00905741)
(-0.008676715 -0.0005262117 0.009016698)
(-0.008772731 -0.0005242439 0.009013979)
(-0.01023104 -0.0004943557 0.008972685)
(-0.01030636 -0.000492812 0.008970552)
(-0.01553406 0.005100549 0.004790386)
(-0.003385786 0.004460544 0.002619543)
(0.001844649 -0.001844649 0.0075)
(-0.001844649 0.001844649 0.0075)
(0.0013 -0.002251666 0.007)
(0.0006729295 -0.002511407 0.007)
(-6.368163e-19 -0.0026 0.007)
(-0.0006729295 -0.002511407 0.007)
(-0.0013 -0.002251666 0.007)
(-0.001838478 -0.001838478 0.007)
(-0.002251666 -0.0013 0.007)
(-0.002511407 -0.0006729296 0.007)
(-0.0026 0 0.007)
(-0.002511407 0.0006729295 0.007)
(-0.002251666 0.0013 0.007)
(-0.0006729295 0.002511407 0.007)
(-0.0013 0.002251666 0.007)
(-8.362238e-19 0.0026 0.007)
(0.0006729295 0.002511407 0.007)
(0.0013 0.002251666 0.007)
(0.001838478 0.001838478 0.007)
(0.002251666 0.0013 0.007)
(0.002511407 0.0006729295 0.007)
(0.0026 0 0.007)
(0.002511407 -0.0006729296 0.007)
(0.002251666 -0.0013 0.007)
(0.002907008 -0.004786367 0.007)
(0.003966897 -0.003952686 0.007)
(0.004796768 -0.002889812 0.007)
(0.005348502 -0.001659374 0.007)
(0.005590107 -0.0003327187 0.007)
(0.003454234 0.004407751 0.007)
(0.002300426 0.005105687 0.007)
(0.001013229 0.005507573 0.007)
(-0.0003327187 0.005590107 0.007)
(-0.001659374 0.005348502 0.007)
(0.005507573 0.001013229 0.007)
(0.005105687 0.002300426 0.007)
(0.004407751 0.003454234 0.007)
(-0.003952686 0.003966897 0.007)
(-0.004786367 0.002907008 0.007)
(-0.003690645 -0.004688549 0.007)
(-0.004688549 -0.003690645 0.007)
(-0.002889812 0.004796768 0.007)
(0.002857611 -0.002857611 0.0075)
(-0.002857611 0.002857611 0.0075)
(-0.001017258 -0.004214361 0.009027801)
(-0.0009357676 -0.004233761 0.009059121)
(-0.0009205266 -0.004236414 0.009064415)
(-0.0007239297 -0.004270636 0.009132694)
(-0.001108803 -0.004190391 0.008982663)
(-0.001628689 -0.004002661 0.008222183)
(-0.0004988331 -0.004309819 0.009210872)
(-0.001518994 -0.004051838 0.008558794)
(-0.001462588 -0.004073423 0.008641751)
(-0.001380157 -0.004104968 0.008762985)
(-0.001324232 -0.004124292 0.008820906)
(-0.001308648 -0.004129677 0.008837047)
(-0.001142483 -0.004180159 0.008958122)
(-0.001568512 -0.004030694 0.008442288)
(-0.001562834 -0.004033339 0.008463053)
(4.951115e-05 -0.004341765 0.009408897)
(5.404371e-05 -0.0043417 0.009410547)
(0.0001309935 -0.004340589 0.009438568)
(0.0002368566 -0.004351824 0.009477369)
(0.0002444307 -0.004352628 0.009480146)
(0.0004275834 -0.004444987 0.009550334)
(0.0004279217 -0.004445348 0.009550476)
(0.0005556355 -0.004621985 0.009606275)
(0.0005789581 -0.004674885 0.009617719)
(0.0002246663 -0.00435053 0.009472901)
(0.000505078 -0.004527615 0.009582674)
(0.0005321519 -0.004568719 0.009594751)
(0.0005918059 -0.004727721 0.009625312)
(0.0006023914 -0.00484077 0.009635057)
(0.0005913561 -0.004722917 0.009624898)
(0.0002893833 -0.004365954 0.009496891)
(0.0003362803 -0.00438955 0.009514838)
(0.0003890235 -0.004416087 0.009535023)
(0.003688792 -0.01591987 0.007471655)
(0.004315958 -0.01577007 0.007)
(0.003276953 -0.01601824 0.007781375)
(0.001165299 -0.01630842 0.009342323)
(0.002004683 -0.01622085 0.008724436)
(0.002225959 -0.01619777 0.008561549)
(0.002327177 -0.01618048 0.008486414)
(0.0004882192 -0.01057186 0.009815582)
(0.0004541511 -0.01227735 0.009855899)
(0.0004923911 -0.01036301 0.009810645)
(0.001154601 -0.01630893 0.009350173)
(0.0004343128 -0.01343365 0.009872805)
(0.0004331192 -0.01350321 0.009873822)
(0.0005230674 -0.00882731 0.009774342)
(0.0005174986 -0.009106093 0.009780932)
(0.0005342741 -0.00826629 0.009761079)
(0.002850143 -0.01609115 0.008098205)
(0.0005842151 -0.005754829 0.009668685)
(0.000575866 -0.006174694 0.009684131)
(0.000553663 -0.007291251 0.009725207)
(0.0005467206 -0.007640371 0.009738053)
(-0.01601824 0.003276953 0.007781375)
(-0.01609115 0.002850146 0.008098203)
(-0.01591987 0.003688795 0.007471653)
(-0.007291251 0.0005536621 0.00972521)
(-0.006174695 0.0005758653 0.009684131)
(-0.005754829 0.0005842145 0.009668685)
(-0.004840771 0.000602391 0.009635058)
(-0.008266326 0.0005342723 0.009761082)
(-0.007640371 0.0005467197 0.009738054)
(-0.01618048 0.002327177 0.008486414)
(-0.01619777 0.002225959 0.008561549)
(-0.01622085 0.002004687 0.008724432)
(-0.01630842 0.001165299 0.009342323)
(-0.01577007 0.004315958 0.007)
(-0.01630893 0.001154604 0.009350169)
(-0.01350321 0.0004331073 0.009873779)
(-0.01343365 0.0004343016 0.009872766)
(-0.01227742 0.000454151 0.009855899)
(-0.009106093 0.000517498 0.009780933)
(-0.00882731 0.0005230667 0.009774343)
(-0.01036301 0.0004923912 0.009810645)
(-0.01057186 0.0004882195 0.009815582)
(-0.004622006 0.0005556564 0.009606285)
(-0.004565114 0.0005300096 0.009593774)
(-0.004670959 0.0005777242 0.00961705)
(-0.004727794 0.0005912851 0.009625115)
(-0.004718113 0.0005903335 0.009624263)
(-0.00441439 0.0003864722 0.009534024)
(-0.004389566 0.0003362958 0.009514845)
(-0.004442852 0.0004250065 0.009549299)
(-0.004524696 0.000502868 0.009581716)
(-0.004524937 0.0005030967 0.009581811)
(-0.004350193 0.0002245855 0.009472865)
(-0.004340589 0.0001309927 0.00943857)
(-0.004364968 0.0002865763 0.00949584)
(-0.004351924 0.0002414473 0.009479043)
(-0.004351457 0.0002368953 0.009477375)
(-0.004340642 5.404407e-05 0.00941056)
(-0.004340727 -6.985408e-05 0.009365461)
(-0.004175849 -0.001160372 0.008951955)
(-0.004150178 -0.001245412 0.008891497)
(-0.004023689 -0.001584678 0.00840346)
(-0.004010188 -0.001613711 0.008300038)
(-0.004257551 -0.0008242531 0.009097065)
(-0.004236992 -0.0009206219 0.009064277)
(-0.004124799 -0.001319667 0.008816359)
(-0.004091072 -0.001418342 0.00871651)
(-0.004072246 -0.001467638 0.008645411)
(-0.004002661 -0.001628688 0.008222188)
(-0.004067662 -0.001479641 0.008628099)
(-0.004031056 -0.00156708 0.008441095)
(-0.00423376 -0.0009357742 0.009059121)
(-0.004180037 -0.001144128 0.008959705)
(-0.004293803 -0.0006166969 0.009169193)
(-0.004275089 -0.0007238457 0.009131958)
(-0.005434607 -0.002490903 0.007222538)
(-0.005489104 -0.002428276 0.007675052)
(-0.0007309593 -0.006027441 0.009021878)
(-0.0008266359 -0.00601378 0.008974382)
(-0.00115928 -0.005941658 0.008815475)
(-0.001448305 -0.005878994 0.008677404)
(-0.001609211 -0.005829961 0.008605381)
(-0.005733509 -0.001911179 0.008465389)
(-0.005766729 -0.00181671 0.00851252)
(-0.002428279 -0.005489102 0.007675032)
(-0.002490903 -0.005434607 0.007222538)
(-0.005949488 -0.001161019 0.008812259)
(-0.005954823 -0.00113715 0.008823629)
(-0.001816684 -0.005766736 0.008512514)
(-0.002000348 -0.005699097 0.008403948)
(-0.002027806 -0.005688985 0.008387718)
(-0.005632946 -0.002160114 0.008262914)
(-0.005655956 -0.002107855 0.008318738)
(-0.005699357 -0.00199779 0.008400807)
(-0.002107406 -0.005656146 0.008319152)
(-0.002156196 -0.005633799 0.008259343)
(-0.002265823 -0.005583587 0.008124957)
(-0.005825484 -0.001609807 0.008606724)
(-0.005936774 -0.001217905 0.008785162)
(-0.002286559 -0.005572985 0.008088366)
(-0.002306426 -0.005562827 0.008053308)
(-0.002316607 -0.005557621 0.008035341)
(-0.005524963 -0.0023739 0.007888757)
(-0.005531522 -0.002363954 0.00792785)
(-0.005555504 -0.002320596 0.008027384)
(-0.002371106 -0.005525901 0.007886958)
(-0.002406012 -0.005505585 0.00779192)
(-0.005574011 -0.00228279 0.008085351)
(-0.005622974 -0.002182761 0.008238721)
(-0.006023422 -0.0007312862 0.009022672)
(0.006702154 -0.005561893 -2.328306e-10)
(0.006107075 -0.00500422 -2.328306e-10)
(0.005578136 -0.004502356 -2.328306e-10)
(0.00445392 -0.003435687 -2.328306e-10)
(0.004348154 -0.003335335 -2.328306e-10)
(-0.004796768 0.002889812 -0.0047)
(-0.004407751 -0.003454234 -0.0047)
(-0.003454234 -0.004407751 -0.0047)
(-0.002300426 -0.005105687 -0.0047)
(-0.001013229 -0.005507573 -0.0047)
(0.0003327187 -0.005590107 -0.0047)
(0.001659374 -0.005348502 -0.0047)
(0.002889812 -0.004796768 -0.0047)
(-0.005348502 0.001659374 -0.0047)
(-0.005590107 0.0003327187 -0.0047)
(-0.005507573 -0.001013229 -0.0047)
(-0.005105687 -0.002300426 -0.0047)
(0.003317499 -0.004511563 -0.002482953)
(0.01510441 -0.006259341 -0.003886721)
(0.01529474 -0.005753996 -0.00428154)
(0.0138978 -0.008595925 -0.001962103)
(0.01337467 0.0004349395 -0.008909759)
(0.01467248 -0.007212586 -0.00312167)
(0.01499988 -0.006490038 -0.00370157)
(0.006691476 0.0005668739 -0.00907283)
(0.01548065 -0.005260407 -0.00466717)
(0.01553406 -0.005100549 -0.00479039)
(0.01531955 -0.00568813 -0.004333)
(0.01030636 0.0004927971 -0.00897053)
(0.01023104 0.0004943406 -0.008972661)
(0.01097665 0.0004790615 -0.008951561)
(0.01416321 -0.008168601 -0.00232982)
(0.01429986 -0.007912753 -0.002541852)
(0.00877273 0.0005242245 -0.009013929)
(0.008676716 0.000526192 -0.009016649)
(0.007238977 0.0005556544 -0.009057329)
(0.007122154 0.0005580484 -0.009060639)
(0.0145574 -0.007430593 -0.002941435)
(0.01466487 -0.007229395 -0.003108181)
(0.01583405 -0.004074973 -0.005571791)
(0.01587684 -0.003904942 -0.0057)
(0.01578418 -0.004245461 -0.0054419)
(0.0155614 -0.005007058 -0.00486162)
(0.01333984 0.0004355804 -0.008910359)
(-0.000259169 0.005840569 -0.0047)
(0.004593834 0.00361609 -0.0047)
(0.00361609 0.004593834 -0.0047)
(0.002436064 0.005314603 -0.0047)
(0.001119767 0.005738078 -0.0047)
(0.005840569 -0.000259169 -0.0047)
(0.005738078 0.001119767 -0.0047)
(0.005314603 0.002436064 -0.0047)
(-0.007212588 0.01467248 -0.00312167)
(-0.007229395 0.01466487 -0.003108181)
(-0.007430594 0.0145574 -0.002941435)
(-0.007912755 0.01429986 -0.002541851)
(-0.004245464 0.01578418 -0.005441891)
(-0.005007061 0.0155614 -0.00486162)
(-0.006259341 0.01510441 -0.003886721)
(-0.006490041 0.01499988 -0.00370157)
(-0.008168601 0.01416321 -0.00232982)
(-0.008595927 0.0138978 -0.001962102)
(0.0005242439 0.008772731 -0.00901398)
(0.0004943557 0.01023104 -0.00897269)
(-0.005100549 0.01553406 -0.00479039)
(-0.005260407 0.01548065 -0.00466717)
(0.0005669987 0.006686626 -0.00907305)
(0.0005580725 0.007122153 -0.009060719)
(-0.00568813 0.01531955 -0.004333)
(-0.005753999 0.01529474 -0.00428154)
(0.0004349413 0.01337467 -0.008909759)
(-0.004074973 0.01583405 -0.005571791)
(-0.003904942 0.01587684 -0.0057)
(0.0005556782 0.007238979 -0.009057409)
(0.0005262117 0.008676715 -0.009016699)
(0.000492812 0.01030636 -0.00897055)
(0.000479073 0.01097672 -0.00895157)
(0.0004355824 0.01333984 -0.00891037)
(-0.003335335 0.004348154 -2.328306e-10)
(-0.003435377 0.004454248 -2.328306e-10)
(-0.004498765 0.00558196 -2.328306e-10)
(-0.005558502 0.006705801 -2.328306e-10)
(-0.004460544 0.003385786 -0.002619543)
(0.01618048 -0.002327177 -0.00848641)
(0.01609115 -0.002850143 -0.0080982)
(0.01591987 -0.003688792 -0.007471661)
(0.01577007 -0.004315958 -0.007000001)
(0.01601824 -0.003276953 -0.00778138)
(0.00484077 -0.0006023914 -0.00963506)
(0.005754829 -0.000584215 -0.009668679)
(0.006174694 -0.000575866 -0.00968413)
(0.007291251 -0.000553663 -0.00972521)
(0.007640371 -0.0005467206 -0.009738049)
(0.00826629 -0.000534274 -0.009761079)
(0.01622085 -0.002004683 -0.008724439)
(0.01619777 -0.002225959 -0.00856155)
(0.01630842 -0.001165299 -0.009342319)
(0.01227735 -0.0004541511 -0.009855899)
(0.01343365 -0.0004343129 -0.009872801)
(0.01350321 -0.0004331191 -0.00987382)
(0.01630893 -0.001154601 -0.00935017)
(0.00882731 -0.0005230674 -0.009774339)
(0.009106093 -0.0005174986 -0.009780929)
(0.01057186 -0.0004882192 -0.00981558)
(0.01036301 -0.0004923911 -0.00981064)
(-0.0006671427 -0.01473618 0.0057)
(0.001513612 -0.01467342 0.0057)
(0.002694665 -0.02133047 0.0057)
(0 -0.0215 0.0057)
(0.005346833 -0.02082454 0.0057)
(-0.002694665 -0.02133047 0.0057)
(0.003485407 -0.0143336 0.0057)
(-0.006933682 -0.01302015 0.0057)
(-0.01263738 -0.01739386 0.0057)
(-0.002833305 -0.01447662 0.0057)
(-0.005346833 -0.02082454 0.0057)
(-0.004937493 -0.01390041 0.0057)
(-0.007914678 -0.01999019 0.0057)
(-0.0103577 -0.01884059 0.0057)
(0.007914678 -0.01999019 0.0057)
(0.0103577 -0.01884059 0.0057)
(0.01263738 -0.01739386 0.0057)
(-0.001705638 -0.01456697 0.00731783)
(-0.001369258 -0.01457739 0.007725701)
(-0.001058446 -0.01458701 0.00810257)
(-0.008659698 -0.01169504 0.0095)
(-0.01467342 0.001513612 0.0057)
(-0.0143336 0.003485407 0.0057)
(-0.01169504 -0.008659698 0.0095)
(-0.01028991 -0.01028991 0.0095)
(-0.01296001 -0.006901658 0.007)
(-0.01302015 -0.006933682 0.0057)
(-0.01383621 -0.004914689 0.007)
(-0.01390041 -0.004937493 0.0057)
(-0.01440976 -0.002820219 0.007)
(-0.01447662 -0.002833305 0.0057)
(-0.01458 -0.001369139 0.007725364)
(-0.01473618 -0.0006671427 0.0057)
(-0.002820219 -0.01440976 0.007)
(-0.004914689 -0.01383621 0.007)
(-0.006901658 -0.01296001 0.007)
(-0.008135877 -0.01266136 -2.328306e-10)
(-0.01266136 -0.008135877 -2.328306e-10)
(-0.0007553114 -0.01458293 0.008471695)
(-0.0006604769 -0.01458165 0.008587175)
(-0.01458529 -0.0006750993 0.008569288)
(-0.01458492 -0.0007554258 0.008471568)
(-0.01458237 -0.001321131 0.007783368)
(-0.01458489 -0.0006603071 0.008587305)
(-0.001338768 -0.01628264 0.007573311)
(-0.0007593705 -0.01632079 0.0083584)
(-0.0003844265 -0.01634548 0.008866452)
(-0.0001801998 -0.01634548 0.009145099)
(0.0002666843 -0.01634548 0.009754829)
(0.008150955 -0.01265166 -0.0095)
(-0.008921742 -0.01212044 -0.0095)
(-0.01064196 -0.01064196 -0.0095)
(-0.01212044 -0.008921742 -0.0095)
(-0.007813659 0.01286271 -0.007000001)
(-0.005791816 0.01389091 -0.007000001)
(-0.01265166 0.008150955 -0.0095)
(-0.01128298 0.00995976 -0.0095)
(0.01154233 -0.009658013 -0.0095)
(0.00995976 -0.01128298 -0.0095)
(-0.0133236 -0.006998868 -0.0057)
(-0.0133236 -0.006998868 -0.007000001)
(-0.01422412 -0.004917013 -0.0057)
(-0.01422412 -0.004917013 -0.007000001)
(-0.01480153 -0.002723467 -0.0057)
(-0.01480153 -0.002723467 -0.007000001)
(-0.01504272 -0.0004680564 -0.0057)
(-0.01504272 -0.0004680564 -0.007000001)
(-0.01494221 0.001797986 -0.0057)
(-0.01494221 0.001797986 -0.007000001)
(-0.01450229 0.004023186 -0.0057)
(-0.01450229 0.004023186 -0.007000001)
(-0.01373295 0.006156999 -0.0057)
(-0.01373295 0.006156999 -0.007000001)
(0.006156999 -0.01373295 -0.0057)
(0.006156999 -0.01373295 -0.007000001)
(0.004023186 -0.01450229 -0.0057)
(0.004023186 -0.01450229 -0.007000001)
(0.001797986 -0.01494221 -0.0057)
(0.001797986 -0.01494221 -0.007000001)
(-0.0004680564 -0.01504272 -0.0057)
(-0.0004680564 -0.01504272 -0.007000001)
(-0.002723467 -0.01480153 -0.0057)
(-0.002723467 -0.01480153 -0.007000001)
(-0.004917013 -0.01422412 -0.0057)
(-0.004917013 -0.01422412 -0.007000001)
(-0.006998868 -0.0133236 -0.0057)
(-0.006998868 -0.0133236 -0.007000001)
(0.01450789 -0.004002959 -0.007000001)
(0.01389091 -0.005791816 -0.007000001)
(0.01286271 -0.007813659 -0.007000001)
(-0.009658013 0.01154233 -0.0095)
(-0.004002959 0.01450789 -0.007000001)
(-0.004315958 0.01577007 -0.007000001)
(-0.003688795 0.01591987 -0.00747165)
(-0.0005842145 0.005754829 -0.009668679)
(-0.000602391 0.004840771 -0.00963506)
(-0.0005342723 0.008266326 -0.009761079)
(-0.0005467197 0.007640371 -0.009738049)
(-0.0005536621 0.007291251 -0.00972521)
(-0.0005758653 0.006174695 -0.00968413)
(-0.002850146 0.01609115 -0.0080982)
(-0.002327177 0.01618048 -0.00848641)
(-0.002225959 0.01619777 -0.00856155)
(-0.002004687 0.01622085 -0.00872443)
(-0.001165299 0.01630842 -0.009342319)
(-0.001154604 0.01630893 -0.00935017)
(-0.0004331073 0.01350321 -0.00987378)
(-0.003276953 0.01601824 -0.00778138)
(-0.0004923912 0.01036301 -0.00981064)
(-0.000517498 0.009106093 -0.009780929)
(-0.0005230667 0.00882731 -0.009774339)
(-0.0004343016 0.01343365 -0.009872769)
(-0.000454151 0.01227742 -0.009855899)
(-0.0004882195 0.01057186 -0.00981558)
(-0.01634548 0.0002666843 0.009754768)
(-0.01634548 -0.0001802606 0.009145021)
(-0.01628264 -0.001338816 0.007573304)
(-0.01632079 -0.0007594299 0.008358363)
(-0.01634548 -0.0003844592 0.008866442)
(-0.02044771 0.006643865 0.0057)
(-0.01945378 0.009154255 0.0057)
(-0.02111918 0.004028698 0.0057)
(-0.02145758 0.001349996 0.0057)
(-0.02145758 -0.001349996 0.0057)
(-0.02111918 -0.004028698 0.0057)
(-0.02044771 -0.006643865 0.0057)
(-0.01945378 -0.009154255 0.0057)
(-0.01815305 -0.01152028 0.0057)
(-0.01815305 0.01152028 0.0057)
(-5.265981e-18 -0.0215 0.007)
(0.002694665 -0.02133047 0.007)
(-0.002694665 -0.02133047 0.007)
(-0.005346833 -0.02082454 0.007)
(-0.007914678 -0.01999019 0.007)
(-0.0103577 -0.01884059 0.007)