# Probe 0 (0 0 0)
# Probe 1 (0 0.011 0)
# Time         0              1             
0              0              0             
1.199999e-06   0              0             
2.639996e-06   1.932345e-193  6.757986e-138 
4.367991e-06   1.516701e-179  8.251763e-137 
6.441582e-06   1.028502e-177  1.107772e-135 
8.92989e-06    6.390803e-176  8.417448e-134 
1.191586e-05   1.896198e-173  9.434389e-132 
1.549901e-05   7.886626e-171  9.313401e-130 
1.97988e-05    2.857782e-168  8.102408e-128 
2.495853e-05   9.059453e-166  6.373302e-126 
3.115017e-05   2.577837e-163  4.63015e-124  
3.858013e-05   6.723935e-161  3.158743e-122 
4.749602e-05   1.635003e-158  2.051053e-120 
5.819505e-05   3.758375e-156  1.281396e-118 
7.103374e-05   8.261696e-154  7.768566e-117 
8.644002e-05   1.753174e-151  4.601199e-115 
0.0001049275   3.620038e-149  2.676376e-113 
0.0001271124   7.323097e-147  1.534819e-111 
0.0001537338   1.459982e-144  8.698976e-110 
0.0001856788   2.881628e-142  4.877527e-108 
0.0002240123   5.656219e-140  2.703087e-106 
0.0002700107   1.107295e-137  1.474077e-104 
0.0003252078   2.159908e-135  7.829906e-103 
0.0003914421   4.184958e-133  3.957327e-101 
0.000470707    7.836389e-131  1.877553e-99  
0.0005632988   1.256122e-128  7.77623e-98   
0.000669588    1.597966e-126  2.645367e-96  
0.0007900037   1.552267e-124  7.366164e-95  
0.0009250321   1.166475e-122  1.717337e-93  
0.001075179    6.999064e-121  3.434595e-92  
0.001231799    2.647329e-119  5.072951e-91  
0.001393255    6.419568e-118  5.561731e-90  
0.001554581    9.914236e-117  4.474826e-89  
0.001715699    1.08714e-115   2.830675e-88  
0.001876608    9.26084e-115   1.488276e-87  
0.002037285    6.496746e-114  6.763309e-87  
0.002197755    3.903416e-113  2.732739e-86  
0.002358045    2.067744e-112  1.002075e-85  
0.002518205    9.857084e-112  3.386383e-85  
0.002678263    4.298289e-111  1.066879e-84  
0.002838244    1.734958e-110  3.162037e-84  
0.002998174    6.546419e-110  8.880767e-84  
0.003158078    2.326982e-109  2.377589e-83  
0.003317982    7.841317e-109  6.097338e-83  
0.003477886    2.518155e-108  1.503765e-82  
0.003637842    7.743191e-108  3.579863e-82  
0.003797874    2.288331e-107  8.251687e-82  
0.003958035    6.522929e-107  1.846886e-81  
0.004118351    1.798403e-106  4.023165e-81  
0.004278822    4.806726e-106  8.545784e-81  
0.004439474    1.248143e-105  1.773315e-80  
0.004600308    3.154617e-105  3.60024e-80   
0.004761349    7.774727e-105  7.161987e-80  
0.0049226      1.87144e-104   1.39775e-79   
0.005084086    4.40672e-104   2.679417e-79  
0.005245782    1.016174e-103  5.049417e-79  
0.005407715    2.297641e-103  9.363948e-79  
0.005569886    5.099007e-103  1.710149e-78  
0.005732348    1.111923e-102  3.078652e-78  
0.005895049    2.383904e-102  5.465572e-78  
0.006058071    5.030653e-102  9.577533e-78  
0.006221333    1.045133e-101  1.657118e-77  
0.006384945    2.140164e-101  2.833755e-77  
0.006548854    4.321234e-101  4.791297e-77  
0.006713115    8.608481e-101  8.01507e-77   
0.006877648    1.692127e-100  1.326729e-76  
0.007042536    3.284594e-100  2.174581e-76  
0.007207726    6.297914e-100  3.530237e-76  
0.007373247    1.193543e-99   5.679054e-76  
0.007539072    2.23649e-99    9.055491e-76  
0.00770523     4.146035e-99   1.431851e-75  
0.007871722    7.606879e-99   2.245799e-75  
0.00803855     1.381816e-98   3.495116e-75  
0.008205716    2.486051e-98   5.398747e-75  
0.008373192    4.430787e-98   8.27845e-75   
0.008541009    7.826046e-98   1.260582e-74  
0.008709167    1.370356e-97   1.906617e-74  
0.008877667    2.379373e-97   2.865025e-74  
0.009046513    4.097832e-97   4.278187e-74  
0.009215704    7.001931e-97   6.349601e-74  
0.009385214    1.187186e-96   9.367844e-74  
0.009555072    1.998009e-96   1.374186e-73  
0.009725281    3.338502e-96   2.004643e-73  
0.009895842    5.539982e-96   2.908568e-73  
0.01006673     9.131666e-96   4.197656e-73  
0.01023797     1.495556e-95   6.027074e-73  
0.01040953     2.433834e-95   8.610321e-73  
0.01058145     3.936395e-95   1.224166e-72  
0.01075371     6.327388e-95   1.732229e-72  
0.01092629     1.010929e-94   2.439915e-72  
0.0110992      1.605643e-94   3.421423e-72  
0.01127245     2.535489e-94   4.777059e-72  
0.01144607     3.981406e-94   6.642222e-72  
0.01162002     6.217341e-94   9.198e-72     
0.01179427     9.655931e-94   1.268569e-71  
0.01196884     1.491777e-93   1.742698e-71  
0.01214374     2.293056e-93   2.38497e-71   
0.01231895     3.507336e-93   3.251657e-71  
0.01249445     5.338619e-93   4.41675e-71   
0.01267025     8.088126e-93   5.97765e-71   
0.01284634     1.219593e-92   8.061205e-71  
0.01302275     1.830572e-92   1.083352e-70  
0.01319943     2.735022e-92   1.450955e-70  
0.01337641     4.067616e-92   1.936822e-70  
0.01355367     6.0222e-92     2.576993e-70  
0.01373124     8.877221e-92   3.418043e-70  
0.01390911     1.302946e-91   4.519488e-70  
0.01408727     1.904377e-91   5.957671e-70  
0.01426568     2.771925e-91   7.829755e-70  
0.01444438     4.018755e-91   1.026008e-69  
0.01462338     5.80417e-91    1.340654e-69  
0.01480264     8.350903e-91   1.746817e-69  
0.01498216     1.197095e-90   2.269778e-69  
0.01516194     1.70977e-90    2.941355e-69  
0.01534201     2.43385e-90    3.801859e-69  
0.01552235     3.452701e-90   4.901509e-69  
0.01570296     4.881849e-90   6.303422e-69  
0.01588383     6.880154e-90   8.086325e-69  
0.01606497     9.665528e-90   1.034837e-68  
0.01624637     1.353603e-89   1.321162e-68  
0.01642804     1.889825e-89   1.682754e-68  
0.01660998     2.630466e-89   2.138382e-68  
0.01679216     3.650181e-89   2.711123e-68  
0.01697461     5.050327e-89   3.42972e-68   
0.01715732     6.967429e-89   4.3295e-68    
0.01734028     9.584386e-89   7.517195e-68  
0.01752351     1.31474e-88    9.526285e-68  
0.01770698     1.798584e-88   1.204729e-67  
0.01789072     2.454231e-88   1.520539e-67  
0.01807471     3.340459e-88   1.915388e-67  
0.01825897     4.535765e-88   2.40834e-67   
0.01844347     6.143976e-88   3.022722e-67  
0.01862822     8.302755e-88   3.78737e-67   
0.01881321     1.119363e-87   4.737851e-67  
0.01899848     1.50565e-87    5.918223e-67  
0.01918399     2.020468e-87   7.382369e-67  
0.01936975     2.704959e-87   9.196897e-67  
0.01955576     3.612886e-87   1.144387e-66  
0.01974201     4.81437e-87    1.42244e-66   
0.01992848     6.400252e-87   1.76623e-66   
0.0201152      8.488775e-87   2.19113e-66   
0.02030213     1.123249e-86   2.71589e-66   
0.02048927     1.482914e-86   3.363628e-66  
0.02067663     1.953388e-86   4.162734e-66  
0.0208642      2.56749e-86    5.148088e-66  
0.02105199     3.36744e-86    6.362484e-66  
0.02124        4.407502e-86   7.858306e-66  
0.02142822     5.757218e-86   9.699595e-66  
0.02161666     7.505589e-86   1.196456e-65  
0.02180532     9.766174e-86   1.474856e-65  
0.02199416     1.268302e-85   1.816699e-65  
0.02218322     1.644036e-85   2.236132e-65  
0.0223725      2.1272e-85     2.750261e-65  
0.022562       2.747629e-85   3.379798e-65  
0.02275172     3.543345e-85   4.149785e-65  
0.02294162     4.562429e-85   5.090223e-65  
0.02313175     5.866233e-85   6.237606e-65  
0.0233221      7.532174e-85   7.635635e-65  
0.02351263     9.657685e-85   9.336379e-65  
0.02370339     1.236608e-84   1.140288e-64  
0.02389433     1.58117e-84    1.390967e-64  
0.0240855      2.018937e-84   1.694668e-64  
0.02427686     2.574258e-84   2.061983e-64  
0.02446844     3.277906e-84   2.505655e-64  
0.02466021     4.168123e-84   3.040646e-64  
0.02485217     5.2928e-84     3.68479e-64   
0.02504435     6.712347e-84   4.459352e-64  
0.02523673     8.501803e-84   5.389139e-64  
0.02542929     1.075522e-83   6.503532e-64  
0.02562209     1.359073e-83   7.837388e-64  
0.02581507     1.715454e-83   9.431147e-64  
0.02600828     2.163061e-83   1.13329e-63   
0.02620169     2.724625e-83   1.359822e-63  
0.02639529     3.42851e-83    1.629245e-63  
0.02658908     4.30993e-83    1.949183e-63  
0.02678306     5.412607e-83   2.328524e-63  
0.02697724     6.790758e-83   2.777604e-63  
0.02717161     8.511482e-83   3.308432e-63  
0.02736618     1.06578e-82    3.934938e-63  
0.02756094     1.333254e-82   4.673269e-63  
0.02775589     1.666266e-82   5.542121e-63  
0.02795104     2.080454e-82   6.563113e-63  
0.02814639     2.595067e-82   7.761231e-63  
0.02834194     3.233798e-82   9.165295e-63  
0.02853768     4.025827e-82   1.08085e-62   
0.02873362     5.007025e-82   1.272903e-62  
0.02892975     6.2213e-82     1.497078e-62  
0.02912609     7.722579e-82   1.758411e-62  
0.02932262     9.576678e-82   2.06268e-62   
0.02951935     1.186432e-81   2.416506e-62  
0.02971628     1.468403e-81   2.827467e-62  
0.02991342     1.815606e-81   3.304222e-62  
0.03011075     2.242735e-81   3.856653e-62  
0.03030824     2.767545e-81   4.495885e-62  
0.03050594     3.411834e-81   5.234859e-62  
0.03070383     4.202043e-81   6.088186e-62  
0.03090189     5.17019e-81    7.072281e-62  
0.03110015     6.355529e-81   8.206181e-62  
0.03129857     7.804977e-81   9.511018e-62  
0.0314972      9.576186e-81   1.101128e-61  
0.03169599     1.173805e-80   1.273407e-61  
0.03189494     1.437397e-80   1.471034e-61  
0.03209406     1.758484e-80   1.697505e-61  
0.03229338     2.149307e-80   1.95682e-61   
0.03249287     2.624449e-80   2.253388e-61  
0.03269252     3.201521e-80   2.592221e-61  
0.03289233     3.90174e-80    2.978961e-61  
0.03309231     4.750608e-80   3.419952e-61  
0.03329246     5.778724e-80   3.922315e-61  
0.03349277     7.02268e-80    4.49405e-61   
0.03369325     8.526118e-80   5.144107e-61  
0.0338939      1.034102e-79   5.882469e-61  
0.03409471     1.252928e-79   6.720299e-61  
0.03429569     1.516529e-79   7.670115e-61  
0.03449683     1.833822e-79   8.745916e-61  
0.03469815     2.215459e-79   9.963344e-61  
0.03489959     2.674004e-79   1.133957e-60  
0.0351012      3.224562e-79   1.289438e-60  
0.03530298     3.884988e-79   1.464963e-60  
0.03550492     4.676464e-79   1.662965e-60  
0.03570704     5.624102e-79   1.88615e-60   
0.03590932     6.757559e-79   2.137538e-60  
0.03611173     8.111759e-79   2.420422e-60  
0.03631432     9.728063e-79   2.738599e-60  
0.03651707     1.165514e-78   3.096242e-60  
0.03671999     1.395024e-78   3.497996e-60  
0.03692305     1.667998e-78   3.948929e-60  
0.03712627     1.99237e-78    4.454867e-60  
0.03732967     2.3774e-78     5.022203e-60  
0.03753319     2.833824e-78   5.657912e-60  
0.03773689     3.374401e-78   6.370022e-60  
0.03794076     4.013967e-78   7.167337e-60  
0.03814475     4.769653e-78   8.059448e-60  
0.03834893     5.661781e-78   9.057386e-60  
0.03855323     6.713634e-78   1.017298e-59  
0.03875771     7.952908e-78   1.141982e-59  
0.03896231     9.411429e-78   1.281244e-59  
0.03916709     1.112662e-77   1.43676e-59   
0.03937201     1.31412e-77    1.610321e-59  
0.03957709     1.550578e-77   1.80399e-59   
0.03978231     1.8278e-77     2.01997e-59   
0.03998766     2.152526e-77   2.260738e-59  
0.04019319     2.532663e-77   2.529099e-59  
0.04039885     2.9772e-77     2.828042e-59  
0.04060464     3.496556e-77   3.160925e-59  
0.04081056     4.102738e-77   3.531469e-59  
0.04101661     4.809678e-77   3.943806e-59  
0.0412228      5.633476e-77   4.402487e-59  
0.04142913     6.592649e-77   4.912542e-59  
0.04163558     7.708562e-77   5.479528e-59  
0.04184217     9.005808e-77   6.109589e-59  
0.04204885     1.051241e-76   6.809334e-59  
0.04225566     1.226102e-76   7.58639e-59   
0.0424626      1.428881e-76   8.449044e-59  
0.04266968     1.663841e-76   9.406399e-59  
0.04287685     1.935804e-76   1.046823e-58  
0.04308416     2.250416e-76   1.164574e-58  
0.0432916      2.614093e-76   1.295104e-58  
0.04349917     3.034175e-76   1.439746e-58  
0.04370683     3.518964e-76   1.599933e-58  
0.04391463     4.078113e-76   1.777303e-58  
0.04412257     4.722532e-76   1.973628e-58  
0.04433059     5.464492e-76   2.1908e-58    
0.04453876     6.318266e-76   2.43099e-58   
0.04474705     7.299876e-76   2.696535e-58  
0.04495544     8.427331e-76   2.989935e-58  
0.04516397     9.721617e-76   3.31405e-58   
0.04537258     1.120603e-75   3.671865e-58  
0.04558134     1.290773e-75   4.066796e-58  
0.04579018     1.485686e-75   4.502397e-58  
0.04599916     1.708842e-75   4.982744e-58  
0.04620824     1.964104e-75   5.512078e-58  
0.04641745     2.255963e-75   6.095258e-58  
0.04662675     2.589352e-75   6.737329e-58  
0.04683619     2.970006e-75   7.444083e-58  
0.04704572     3.404227e-75   8.221521e-58  
0.04725539     3.899312e-75   9.07653e-58   
0.04746516     4.46325e-75    1.001629e-57  
0.04767506     5.105312e-75   1.104903e-57  
0.04788505     5.835727e-75   1.218321e-57  
0.04809519     6.666355e-75   1.342852e-57  
0.04830541     7.610214e-75   1.479496e-57  
0.04851578     8.682354e-75   1.629393e-57  
0.04872624     9.89924e-75    1.793719e-57  
0.04893684     1.127995e-74   1.973823e-57  
0.04914753     1.284535e-74   2.171095e-57  
0.04935836     1.461962e-74   2.387119e-57  
0.04956928     1.662915e-74   2.623517e-57  
0.04978035     1.890418e-74   2.882148e-57  
0.04999151     2.147773e-74   3.164907e-57  
0.05020281     2.438817e-74   3.473971e-57  
0.05041421     2.767729e-74   3.811553e-57  
0.05062574     3.139371e-74   4.180194e-57  
0.05083742     3.559122e-74   4.582566e-57  
0.05104919     4.032894e-74   5.021447e-57  
0.05126111     4.567522e-74   5.500025e-57  
0.05147311     5.170448e-74   6.021529e-57  
0.05168527     5.85024e-74    6.589666e-57  
0.05189751     6.616159e-74   7.208186e-57  
0.0521099      7.478885e-74   7.881401e-57  
0.05232238     8.450004e-74   9.177898e-57  
0.05253501     9.542942e-74   1.006484e-56  
0.05274773     1.07722e-73    1.103268e-56  
0.0529606      1.215459e-73   1.208854e-56  
0.05317356     1.370818e-73   1.323967e-56  
0.05338667     1.545391e-73   1.44944e-56   
0.05359987     1.741434e-73   1.586117e-56  
0.05381321     1.961533e-73   1.73497e-56   
0.05402665     2.208453e-73   1.896984e-56  
0.05424024     2.485374e-73   2.073293e-56  
0.05445392     2.795725e-73   2.265041e-56  
0.05466775     3.143488e-73   2.473551e-56  
0.05488172     3.533014e-73   2.700203e-56  
0.05509584     3.969118e-73   2.946492e-56  
0.05531006     4.457039e-73   3.213957e-56  
0.05552442     5.002828e-73   3.504384e-56  
0.05573888     5.613047e-73   3.819552e-56  
0.05595343     6.294995e-73   4.161444e-56  
0.05616814     7.056993e-73   4.532281e-56  
0.05638298     7.908042e-73   4.934386e-56  
0.05659793     8.857835e-73   5.370144e-56  
0.05681303     9.917593e-73   5.842321e-56  
0.05702822     1.109928e-72   6.353675e-56  
0.05724356     1.24168e-72    6.907393e-56  
0.05745899     1.3885e-72     7.506659e-56  
0.05767458     1.552101e-72   8.155141e-56  
0.05789026     1.734303e-72   8.856503e-56  
0.0581061      1.937192e-72   9.614978e-56  
0.05832208     2.16303e-72    1.043498e-55  
0.05853816     2.414271e-72   1.132099e-55  
0.05875439     2.693736e-72   1.227826e-55  
0.05897072     3.004414e-72   1.331197e-55  
0.05918719     3.349737e-72   1.442815e-55  
0.05940382     3.73344e-72    1.563304e-55  
0.05962055     4.159549e-72   1.693302e-55  
0.05983743     4.632703e-72   1.833549e-55  
0.06005445     5.157967e-72   1.984815e-55  
0.06027158     5.740772e-72   2.147879e-55  
0.06048886     6.387398e-72   2.323655e-55  
0.06070624     7.104281e-72   2.513039e-55  
0.06092377     7.898888e-72   2.71708e-55   
0.06114145     8.779331e-72   2.936865e-55  
0.06135923     9.754354e-72   3.173505e-55  
0.06157717     1.083401e-71   3.428291e-55  
0.06179525     1.202903e-71   3.702549e-55  
0.06201344     1.335094e-71   3.997622e-55  
0.06223178     1.481313e-71   4.315079e-55  
0.06245022     1.642968e-71   4.656441e-55  
0.06266881     1.821677e-71   5.023493e-55  
0.06288751     2.019134e-71   5.417973e-55  
0.06310636     2.237294e-71   5.841926e-55  
0.06332536     2.478247e-71   6.297446e-55  
0.06354447     2.744198e-71   6.786651e-55  
0.06376373     3.037672e-71   7.312031e-55  
0.06398309     3.361315e-71   7.875994e-55  
0.0642026      3.718173e-71   8.481367e-55  
0.06442222     4.111455e-71   9.130878e-55  
0.064642       4.544777e-71   9.827748e-55  
0.06486187     5.021866e-71   1.057508e-54  
0.06508191     5.547045e-71   1.137652e-54  
0.06530209     6.125e-71      1.223578e-54  
0.06552239     6.760733e-71   1.315658e-54  
0.06574283     7.460057e-71   1.414328e-54  
0.06596339     8.229002e-71   1.520008e-54  
0.06618404     9.074111e-71   1.633162e-54  
0.06640485     1.000293e-70   1.754315e-54  
0.06662577     1.102325e-70   1.883964e-54  
0.06684684     1.214392e-70   2.022702e-54  
0.06706802     1.337399e-70   2.171095e-54  
0.06728936     1.472411e-70   2.329813e-54  
0.0675108      1.620522e-70   2.499492e-54  
0.0677324      1.783002e-70   2.680889e-54  
0.0679541      1.961152e-70   2.874721e-54  
0.06817597     2.156488e-70   3.081839e-54  
0.06839794     2.370543e-70   3.303048e-54  
0.06862006     2.605077e-70   3.539308e-54  
0.0688423      2.861892e-70   3.79152e-54   
0.06906469     3.14307e-70    4.060754e-54  
0.06928719     3.450768e-70   4.348021e-54  
0.06950985     3.787527e-70   4.654519e-54  
0.06973261     4.155953e-70   4.981371e-54  
0.06995554     4.559044e-70   5.329926e-54  
0.07017857     4.999856e-70   5.70144e-54   
0.07040171     5.481698e-70   6.097329e-54  
0.07062501     6.0083e-70     6.519196e-54  
0.07084842     6.583485e-70   6.968537e-54  
0.07107193     7.211547e-70   7.447026e-54  
0.07129555     7.897068e-70   7.95645e-54   
0.07151934     8.645188e-70   8.498837e-54  
0.07174323     9.461162e-70   9.076059e-54  
0.07196728     1.035104e-69   9.690364e-54  
0.07219145     1.132101e-69   1.034384e-53  
0.07241572     1.237802e-69   1.103882e-53  
0.07264015     1.35299e-69    1.177798e-53  
0.07286469     1.478441e-69   1.256374e-53  
0.07308934     1.615021e-69   1.339887e-53  
0.07331416     1.763711e-69   1.428647e-53  
0.07353908     1.925502e-69   1.522939e-53  
0.07376412     2.101496e-69   1.623086e-53  
0.07398931     2.292931e-69   1.729453e-53  
0.07421462     2.501057e-69   1.842375e-53  
0.07444009     2.727337e-69   1.962261e-53  
0.07466567     2.973218e-69   2.089484e-53  
0.07489136     3.240324e-69   2.224468e-53  
0.07511722     3.530409e-69   2.367694e-53  
0.07534324     3.845349e-69   2.519635e-53  
0.07556938     4.187036e-69   2.680752e-53  
0.07579567     4.557735e-69   2.851604e-53  
0.07602214     4.959781e-69   3.032743e-53  
0.07624872     5.39569e-69    3.224699e-53  
0.07647546     5.868395e-69   3.428124e-53  
0.07670237     6.380944e-69   3.64366e-53   
0.07692939     6.936447e-69   3.871925e-53  
0.07715658     7.538527e-69   4.113679e-53  
0.07738388     8.190731e-69   4.369606e-53  
0.07761135     8.897179e-69   4.640549e-53  
0.07783893     9.661996e-69   4.927265e-53  
0.07806668     1.048997e-68   5.230691e-53  
0.07829455     1.138584e-68   5.551662e-53  
0.07852258     1.235524e-68   5.891214e-53  
0.07875072     1.34037e-68    6.250266e-53  
0.07897904     1.453753e-68   6.629961e-53  
0.07920747     1.576315e-68   7.031313e-53  
0.07943606     1.7088e-68     7.455587e-53  
0.07966477     1.851943e-68   7.903898e-53  
0.07989366     2.00662e-68    8.37765e-53   
0.08012265     2.173691e-68   8.878065e-53  
0.08035176     2.354096e-68   9.406538e-53  
0.08058099     2.548837e-68   9.964534e-53  
0.08081038     2.759043e-68   1.055373e-52  
0.08103989     2.985836e-68   1.11756e-52   
0.08126952     3.230466e-68   1.183183e-52  
0.08149932     3.494326e-68   1.252434e-52  
0.08172923     3.778822e-68   1.325485e-52  
0.08195931     4.085588e-68   1.402548e-52  
0.08218952     4.416198e-68   1.483808e-52  
0.08241989     4.772464e-68   1.569501e-52  
0.08265038     5.156199e-68   1.659827e-52  
0.08288104     5.569537e-68   1.755046e-52  
0.08311182     6.014613e-68   1.855383e-52  
0.08334278     6.493939e-68   1.961122e-52  
0.08357385     7.009892e-68   2.072509e-52  
0.08380504     7.565061e-68   2.189826e-52  
0.0840364      8.1624e-68     2.3134e-52    
0.08426788     8.804762e-68   2.443509e-52  
0.08449947     9.495389e-68   2.580475e-52  
0.08473125     1.023794e-67   2.724671e-52  
0.08496314     1.103595e-67   2.876415e-52  
0.08519514     1.189343e-67   3.036074e-52  
0.08542733     1.28147e-67    3.204074e-52  
0.08565963     1.380412e-67   3.380778e-52  
0.08589205     1.486643e-67   3.566605e-52  
0.08612459     1.600688e-67   3.761993e-52  
0.0863573      1.723115e-67   3.967449e-52  
0.08659014     1.854484e-67   4.183396e-52  
0.08682309     1.995406e-67   4.41033e-52   
0.08705616     2.146527e-67   4.648773e-52  
0.08728941     2.308595e-67   4.89933e-52   
0.08752278     2.48233e-67    5.16251e-52   
0.08775627     2.668532e-67   5.438901e-52  
0.08798988     2.868076e-67   5.729122e-52  
0.08822367     3.081927e-67   6.0339e-52    
0.08845758     3.310998e-67   6.353843e-52  
0.08869161     3.556296e-67   6.689662e-52  
0.08892576     3.818944e-67   8.106688e-52  
0.08916009     4.100181e-67   8.560114e-52  
0.08939454     4.401123e-67   9.037471e-52  
0.08962911     4.723061e-67   9.539946e-52  
0.0898638      5.067404e-67   1.006878e-51  
0.09009861     5.435683e-67   1.062526e-51  
0.09033355     5.829572e-67   1.121076e-51  
0.09056861     6.250741e-67   1.182668e-51  
0.09080378     6.700956e-67   1.24745e-51   
0.09103908     7.182108e-67   1.315577e-51  
0.0912745      7.696232e-67   1.387211e-51  
0.09151011     8.245628e-67   1.462541e-51  
0.09174583     8.832447e-67   1.541728e-51  
0.09198168     9.459169e-67   1.624958e-51  
0.09221765     1.012846e-66   1.712425e-51  
0.09245375     1.084303e-66   1.804332e-51  
0.09268997     1.160583e-66   1.90089e-51   
0.09292631     1.241989e-66   2.00232e-51   
0.09316277     1.32886e-66    2.108854e-51  
0.09339936     1.421554e-66   2.220731e-51  
0.09363607     1.520446e-66   2.338199e-51  
0.0938729      1.625937e-66   2.461519e-51  
0.09410986     1.738439e-66   2.590963e-51  
0.09434694     1.858394e-66   2.726815e-51  
0.09458421     1.986302e-66   2.869413e-51  
0.0948216      2.122631e-66   3.019034e-51  
0.09505912     2.267916e-66   3.176005e-51  
0.09529676     2.42272e-66    3.340673e-51  
0.09553453     2.587648e-66   3.513395e-51  
0.09577242     2.763282e-66   3.694545e-51  
0.09601044     2.950249e-66   3.884512e-51  
0.09624858     3.149293e-66   4.0837e-51    
0.09648685     3.361203e-66   4.292537e-51  
0.0967253      3.586862e-66   4.511526e-51  
0.09696382     3.827008e-66   4.741019e-51  
0.09720247     4.082586e-66   4.981553e-51  
0.09744124     4.354525e-66   5.233628e-51  
0.09768014     4.643781e-66   5.497763e-51  
0.09791917     4.951371e-66   5.774499e-51  
0.09815832     5.278419e-66   6.064403e-51  
0.0983976      5.626116e-66   6.368066e-51  
0.098637       5.995712e-66   6.686104e-51  
0.09887654     6.388471e-66   7.019159e-51  
0.09911613     6.805644e-66   7.367813e-51  
0.09935586     7.248769e-66   7.732863e-51  
0.09959571     7.719375e-66   8.115048e-51  
0.09983569     8.219103e-66   8.515132e-51  
0.1000757      8.749552e-66   8.933796e-51  
0.1003159      9.312791e-66   9.371966e-51  
0.1005562      9.910805e-66   9.830497e-51  
0.1007966      1.054551e-65   1.031014e-50  
0.1010371      1.121919e-65   1.081194e-50  
0.1012777      1.193404e-65   1.133684e-50  
0.1015184      1.269236e-65   1.188585e-50  
0.1017593      1.349665e-65   1.246001e-50  
0.1020003      1.434952e-65   1.306039e-50  
0.1022414      1.525339e-65   1.368795e-50  
0.1024826      1.621145e-65   1.4344e-50    
0.1027239      1.722696e-65   1.502975e-50  
0.1029654      1.830333e-65   1.574648e-50  
0.103207       1.944405e-65   1.649549e-50  
0.1034487      2.065273e-65   1.727817e-50  
0.1036906      2.193324e-65   1.809594e-50  
0.1039325      2.328929e-65   1.895007e-50  
0.1041745      2.472552e-65   1.984229e-50  
0.1044167      2.624655e-65   2.077422e-50  
0.104659       2.785725e-65   2.174748e-50  
0.1049015      2.956251e-65   2.276379e-50  
0.105144       3.136753e-65   2.382494e-50  
0.1053867      3.327728e-65   2.493246e-50  
0.1056295      3.529807e-65   2.608856e-50  
0.1058724      3.743615e-65   2.729521e-50  
0.1061154      3.969809e-65   2.855446e-50  
0.1063586      4.209085e-65   2.986844e-50  
0.1066019      4.462174e-65   3.123936e-50  
0.1068452      4.729766e-65   3.266911e-50  
0.1070888      5.012824e-65   3.416087e-50  
0.1073325      5.312139e-65   3.571675e-50  
0.1075763      5.628595e-65   3.733935e-50  
0.1078203      5.963127e-65   3.903134e-50  
0.1080644      6.316727e-65   4.07955e-50   
0.1083086      6.690443e-65   4.263472e-50  
0.108553       7.085309e-65   2.585664e-51  
0.1087975      7.502461e-65   2.708716e-51  
0.1090421      7.94308e-65    2.837319e-51  
0.1092869      8.408272e-65   2.971709e-51  
0.1095318      8.899212e-65   3.112128e-51  
0.1097768      9.417196e-65   3.25883e-51   
0.110022       9.963629e-65   3.412075e-51  
0.1102673      1.054003e-64   3.572134e-51  
0.1105128      1.114796e-64   3.739289e-51  
0.1107584      1.178922e-64   3.913886e-51  
0.1110042      1.246535e-64   4.096185e-51  
0.1112501      1.317818e-64   4.286507e-51  
0.1114962      1.392971e-64   4.485179e-51  
0.1117423      1.472207e-64   4.692544e-51  
0.1119887      1.555748e-64   4.908957e-51  
0.1122351      1.643833e-64   5.134786e-51  
0.1124817      1.73671e-64    5.370414e-51  
0.1127285      1.834653e-64   5.616308e-51  
0.1129755      1.937892e-64   5.872823e-51  
0.1132226      2.046705e-64   6.140388e-51  
0.1134698      2.161377e-64   6.419451e-51  
0.1137172      2.282209e-64   6.710479e-51  
0.1139646      2.409531e-64   7.013956e-51  
0.1142123      2.543658e-64   7.330382e-51  
0.1144601      2.684917e-64   7.660276e-51  
0.114708       2.833649e-64   8.004171e-51  
0.114956       2.990227e-64   8.36262e-51   
0.1152042      3.155095e-64   8.736201e-51  
0.1154525      3.328694e-64   9.125512e-51  
0.115701       3.511479e-64   9.531178e-51  
0.1159496      3.703903e-64   9.95385e-51   
0.1161984      3.906462e-64   1.039419e-50  
0.1164472      4.119657e-64   1.08529e-50   
0.1166963      4.34397e-64    1.133069e-50  
0.1169455      4.580007e-64   1.182844e-50  
0.1171949      4.828313e-64   1.234679e-50  
0.1174444      5.089528e-64   1.288652e-50  
0.1176941      5.364283e-64   1.344846e-50  
0.1179439      5.653256e-64   1.403342e-50  
0.1181938      5.957149e-64   1.464228e-50  
0.1184439      6.276681e-64   1.527593e-50  
0.1186941      6.612614e-64   1.593529e-50  
0.1189445      6.965758e-64   1.662132e-50  
0.119195       7.336953e-64   1.733504e-50  
0.1194457      7.727091e-64   1.807748e-50  
0.1196965      8.137134e-64   1.884974e-50  
0.1199474      8.568055e-64   1.965296e-50  
0.1201985      9.020923e-64   2.048834e-50  
0.1204497      9.496828e-64   2.135709e-50  
0.120701       9.996722e-64   2.22602e-50   
0.1209525      1.052179e-63   2.319921e-50  
0.1212041      1.107319e-63   2.417545e-50  
0.1214558      1.165215e-63   2.519027e-50  
0.1217077      1.226003e-63   2.624512e-50  
0.1219597      1.289832e-63   2.734145e-50  
0.1222119      1.356849e-63   2.84808e-50   
0.1224642      1.427212e-63   2.966476e-50  
0.1227166      1.501072e-63   3.089495e-50  
0.1229692      1.57857e-63    3.217308e-50  
0.123222       1.659866e-63   3.35009e-50   
0.1234749      1.745142e-63   3.488023e-50  
0.1237279      1.834601e-63   3.631296e-50  
0.123981       1.928416e-63   3.780058e-50  
0.1242343      2.026804e-63   3.934553e-50  
0.1244877      2.130017e-63   4.094985e-50  
0.1247412      2.238269e-63   4.26157e-50   
0.1249949      2.351816e-63   4.434524e-50  
0.1252487      2.470876e-63   4.61402e-50   
0.1255026      2.595728e-63   4.800338e-50  
0.1257567      2.726653e-63   4.993718e-50  
0.1260109      2.863946e-63   5.194408e-50  
0.1262653      3.007904e-63   5.402665e-50  
0.1265197      3.158813e-63   5.618694e-50  
0.1267743      3.317025e-63   5.84283e-50   
0.127029       3.482887e-63   6.075361e-50  
0.1272839      3.656745e-63   6.316581e-50  
0.1275389      3.838892e-63   6.566724e-50  
0.127794       4.029754e-63   2.016809e-50  
0.1280492      4.229754e-63   2.102991e-50  
0.1283046      4.439342e-63   2.192663e-50  
0.1285602      4.658979e-63   2.285961e-50  
0.1288159      4.889149e-63   2.383021e-50  
0.1290717      5.13036e-63    2.483981e-50  
0.1293277      5.383113e-63   2.588988e-50  
0.1295839      5.647937e-63   2.698195e-50  
0.1298402      5.925358e-63   2.811763e-50  
0.1300967      6.215968e-63   2.929855e-50  
0.1303532      6.520317e-63   3.052607e-50  
0.1306099      6.839155e-63   3.180229e-50  
0.1308667      7.173166e-63   3.312902e-50  
0.1311236      7.522952e-63   3.450776e-50  
0.1313807      7.889289e-63   3.594084e-50  
0.1316378      8.272776e-63   3.742984e-50  
0.1318951      8.674279e-63   3.89773e-50   
0.1321526      9.094615e-63   4.058538e-50  
0.1324102      9.534675e-63   4.225635e-50  
0.1326678      9.995311e-63   4.399204e-50  
0.1329257      1.047769e-62   4.579535e-50  
0.1331836      1.098286e-62   4.766881e-50  
0.1334417      1.151171e-62   4.961443e-50  
0.1336999      1.206531e-62   5.163544e-50  
0.1339583      1.264463e-62   5.373463e-50  
0.1342167      1.325059e-62   5.591423e-50  
0.1344753      1.388457e-62   5.817779e-50  
0.1347341      1.454783e-62   6.052839e-50  
0.1349929      1.524141e-62   6.296843e-50  
0.1352519      1.596688e-62   6.550187e-50  
0.135511       1.672561e-62   6.813208e-50  
0.1357702      1.751894e-62   7.086167e-50  
0.1360296      1.834869e-62   7.369505e-50  
0.1362891      1.921657e-62   7.663591e-50  
0.1365488      2.012437e-62   7.968815e-50  
0.1368086      2.107366e-62   8.285481e-50  
0.1370685      2.206678e-62   8.614096e-50  
0.1373286      2.310606e-62   8.955086e-50  
0.1375887      2.419346e-62   9.308788e-50  
0.1378491      2.533151e-62   9.675762e-50  
0.1381095      2.652256e-62   1.005648e-49  