# Probe 0 (0 0 0)
# Probe 1 (0 0.011 0)
# Time         0              1             
0              0              0             
1.199999e-06   3.132304e-10   3.132304e-10  
2.639996e-06   8.217673e-10   8.217673e-10  
4.367991e-06   1.488195e-09   1.488195e-09  
6.441582e-06   2.3117e-09     2.3117e-09    
8.92989e-06    3.309978e-09   3.309978e-09  
1.191586e-05   4.51217e-09    4.51217e-09   
1.549901e-05   5.956598e-09   5.956598e-09  
1.97988e-05    7.690659e-09   7.690659e-09  
2.495853e-05   9.771822e-09   9.771822e-09  
3.115017e-05   1.226931e-08   1.226931e-08  
3.858013e-05   1.52663e-08    1.52663e-08   
4.749602e-05   1.886261e-08   1.886261e-08  
5.819505e-05   2.317808e-08   2.317808e-08  
7.103374e-05   2.835644e-08   2.835644e-08  
8.644002e-05   3.457019e-08   3.457019e-08  
0.0001049275   4.202636e-08   4.202636e-08  
0.0001271124   5.097327e-08   5.097327e-08  
0.0001537338   6.170874e-08   6.170874e-08  
0.0001856788   7.459008e-08   7.459008e-08  
0.0002240123   9.004616e-08   9.004616e-08  
0.0002700107   1.085908e-07   1.085908e-07  
0.0003252078   1.308412e-07   1.308412e-07  
0.0003914421   1.575368e-07   1.575368e-07  
0.000470707    1.894785e-07   1.894785e-07  
0.0005632988   2.267828e-07   2.267828e-07  
0.000669588    2.695951e-07   2.695951e-07  
0.0007900037   3.180838e-07   3.180838e-07  
0.0009250321   3.724396e-07   3.724396e-07  
0.001075179    4.3286e-07     4.3286e-07    
0.001231799    4.958616e-07   4.958616e-07  
0.001393255    5.607831e-07   5.607831e-07  
0.001554581    6.256263e-07   6.256263e-07  
0.001715699    6.9036e-07     6.9036e-07    
0.001876608    7.549847e-07   7.549847e-07  
0.002037285    8.194902e-07   8.194902e-07  
0.002197755    8.838872e-07   8.838872e-07  
0.002358045    9.481865e-07   9.481865e-07  
0.002518205    1.012409e-06   1.012409e-06  
0.002678263    1.076565e-06   1.076565e-06  
0.002838244    1.140664e-06   1.140664e-06  
0.002998174    1.204718e-06   1.204718e-06  
0.003158078    1.268737e-06   1.268737e-06  
0.003317982    1.33273e-06    1.33273e-06   
0.003477886    1.396699e-06   1.396699e-06  
0.003637842    1.460662e-06   1.460662e-06  
0.003797874    1.524632e-06   1.524632e-06  
0.003958035    1.588628e-06   1.588628e-06  
0.004118351    1.65266e-06    1.65266e-06   
0.004278822    1.716729e-06   1.716729e-06  
0.004439474    1.780846e-06   1.780846e-06  
0.004600308    1.845009e-06   1.845009e-06  
0.004761349    1.90923e-06    1.90923e-06   
0.0049226      1.97351e-06    1.97351e-06   
0.005084086    2.037857e-06   2.037857e-06  
0.005245782    2.102263e-06   2.102263e-06  
0.005407715    2.166738e-06   2.166738e-06  
0.005569886    2.231281e-06   2.231281e-06  
0.005732348    2.295916e-06   2.295916e-06  
0.005895049    2.360619e-06   2.360619e-06  
0.006058071    2.425424e-06   2.425424e-06  
0.006221333    2.4903e-06     2.4903e-06    
0.006384945    2.555288e-06   2.555288e-06  
0.006548854    2.620368e-06   2.620368e-06  
0.006713115    2.685562e-06   2.685562e-06  
0.006877648    2.750837e-06   2.750837e-06  
0.007042536    2.816228e-06   2.816228e-06  
0.007207726    2.881711e-06   2.881711e-06  
0.007373247    2.9473e-06     2.9473e-06    
0.007539072    3.012982e-06   3.012982e-06  
0.00770523     3.07877e-06    3.07877e-06   
0.007871722    3.144663e-06   3.144663e-06  
0.00803855     3.210663e-06   3.210663e-06  
0.008205716    3.276769e-06   3.276769e-06  
0.008373192    3.342972e-06   3.342972e-06  
0.008541009    3.409281e-06   3.409281e-06  
0.008709167    3.475699e-06   3.475699e-06  
0.008877667    3.542225e-06   3.542225e-06  
0.009046513    3.60886e-06    3.60886e-06   
0.009215704    3.675604e-06   3.675604e-06  
0.009385214    3.742446e-06   3.742446e-06  
0.009555072    3.809398e-06   3.809398e-06  
0.009725281    3.87646e-06    3.87646e-06   
0.009895842    3.943634e-06   3.943634e-06  
0.01006673     4.010907e-06   4.010907e-06  
0.01023797     4.078292e-06   4.078292e-06  
0.01040953     4.145777e-06   4.145777e-06  
0.01058145     4.213375e-06   4.213375e-06  
0.01075371     4.281075e-06   4.281075e-06  
0.01092629     4.348876e-06   4.348876e-06  
0.0110992      4.416779e-06   4.416779e-06  
0.01127245     4.484784e-06   4.484784e-06  
0.01144607     4.552905e-06   4.552905e-06  
0.01162002     4.621128e-06   4.621128e-06  
0.01179427     4.689444e-06   4.689444e-06  
0.01196884     4.757851e-06   4.757851e-06  
0.01214374     4.826362e-06   4.826362e-06  
0.01231895     4.894967e-06   4.894967e-06  
0.01249445     4.963651e-06   4.963651e-06  
0.01267025     5.032429e-06   5.032429e-06  
0.01284634     5.101289e-06   5.101289e-06  
0.01302275     5.170242e-06   5.170242e-06  
0.01319943     5.239277e-06   5.239277e-06  
0.01337641     5.308394e-06   5.308394e-06  
0.01355367     5.377593e-06   5.377593e-06  
0.01373124     5.446888e-06   5.446888e-06  
0.01390911     5.516265e-06   5.516265e-06  
0.01408727     5.585726e-06   5.585726e-06  
0.01426568     5.655257e-06   5.655257e-06  
0.01444438     5.724872e-06   5.724872e-06  
0.01462338     5.794571e-06   5.794571e-06  
0.01480264     5.864341e-06   5.864341e-06  
0.01498216     5.934183e-06   5.934183e-06  
0.01516194     6.004097e-06   6.004097e-06  
0.01534201     6.074096e-06   6.074096e-06  
0.01552235     6.144168e-06   6.144168e-06  
0.01570296     6.214312e-06   6.214312e-06  
0.01588383     6.284528e-06   6.284528e-06  
0.01606497     6.354818e-06   6.354818e-06  
0.01624637     6.425181e-06   6.425181e-06  
0.01642804     6.495618e-06   6.495618e-06  
0.01660998     6.566128e-06   6.566128e-06  
0.01679216     6.636699e-06   6.636699e-06  
0.01697461     6.707343e-06   6.707343e-06  
0.01715732     6.778063e-06   6.778063e-06  
0.01734028     6.848843e-06   6.848843e-06  
0.01752351     6.919699e-06   6.919699e-06  
0.01770698     6.990615e-06   6.990615e-06  
0.01789072     7.061608e-06   7.061608e-06  
0.01807471     7.132662e-06   7.132662e-06  
0.01825897     7.203791e-06   7.203791e-06  
0.01844347     7.274983e-06   7.274983e-06  
0.01862822     7.346238e-06   7.346238e-06  
0.01881321     7.417555e-06   7.417555e-06  
0.01899848     7.488949e-06   7.488949e-06  
0.01918399     7.560406e-06   7.560406e-06  
0.01936975     7.631926e-06   7.631926e-06  
0.01955576     7.703509e-06   7.703509e-06  
0.01974201     7.775156e-06   7.775156e-06  
0.01992848     7.846854e-06   7.846854e-06  
0.0201152      7.918615e-06   7.918615e-06  
0.02030213     7.990426e-06   7.990426e-06  
0.02048927     8.062288e-06   8.062288e-06  
0.02067663     8.134201e-06   8.134201e-06  
0.0208642      8.206164e-06   8.206164e-06  
0.02105199     8.278179e-06   8.278179e-06  
0.02124        8.350244e-06   8.350244e-06  
0.02142822     8.422361e-06   8.422361e-06  
0.02161666     8.494528e-06   8.494528e-06  
0.02180532     8.566748e-06   8.566748e-06  
0.02199416     8.639004e-06   8.639004e-06  
0.02218322     8.711313e-06   8.711313e-06  
0.0223725      8.783673e-06   8.783673e-06  
0.022562       8.856085e-06   8.856085e-06  
0.02275172     8.928549e-06   8.928549e-06  
0.02294162     9.00105e-06    9.00105e-06   
0.02313175     9.073605e-06   9.073605e-06  
0.0233221      9.146211e-06   9.146211e-06  
0.02351263     9.218856e-06   9.218856e-06  
0.02370339     9.291554e-06   9.291554e-06  
0.02389433     9.36429e-06    9.36429e-06   
0.0240855      9.437079e-06   9.437079e-06  
0.02427686     9.509906e-06   9.509906e-06  
0.02446844     9.582787e-06   9.582787e-06  
0.02466021     9.655706e-06   9.655706e-06  
0.02485217     9.728665e-06   9.728665e-06  
0.02504435     9.801677e-06   9.801677e-06  
0.02523673     9.874728e-06   9.874728e-06  
0.02542929     9.947818e-06   9.947818e-06  
0.02562209     1.002096e-05   1.002096e-05  
0.02581507     1.009415e-05   1.009415e-05  
0.02600828     1.016738e-05   1.016738e-05  
0.02620169     1.024066e-05   1.024066e-05  
0.02639529     1.031398e-05   1.031398e-05  
0.02658908     1.038733e-05   1.038733e-05  
0.02678306     1.046073e-05   1.046073e-05  
0.02697724     1.053417e-05   1.053417e-05  
0.02717161     1.060764e-05   1.060764e-05  
0.02736618     1.068116e-05   1.068116e-05  
0.02756094     1.075472e-05   1.075472e-05  
0.02775589     1.082832e-05   1.082832e-05  
0.02795104     1.090195e-05   1.090195e-05  
0.02814639     1.097563e-05   1.097563e-05  
0.02834194     1.104935e-05   1.104935e-05  
0.02853768     1.112311e-05   1.112311e-05  
0.02873362     1.119691e-05   1.119691e-05  
0.02892975     1.127075e-05   1.127075e-05  
0.02912609     1.134464e-05   1.134464e-05  
0.02932262     1.141856e-05   1.141856e-05  
0.02951935     1.149253e-05   1.149253e-05  
0.02971628     1.156653e-05   1.156653e-05  
0.02991342     1.164058e-05   1.164058e-05  
0.03011075     1.171467e-05   1.171467e-05  
0.03030824     1.178878e-05   1.178878e-05  
0.03050594     1.186294e-05   1.186294e-05  
0.03070383     1.193714e-05   1.193714e-05  
0.03090189     1.201137e-05   1.201137e-05  
0.03110015     1.208563e-05   1.208563e-05  
0.03129857     1.215993e-05   1.215993e-05  
0.0314972      1.223426e-05   1.223426e-05  
0.03169599     1.230863e-05   1.230863e-05  
0.03189494     1.238302e-05   1.238302e-05  
0.03209406     1.245744e-05   1.245744e-05  
0.03229338     1.25319e-05    1.25319e-05   
0.03249287     1.260638e-05   1.260638e-05  
0.03269252     1.26809e-05    1.26809e-05   
0.03289233     1.275544e-05   1.275544e-05  
0.03309231     1.283001e-05   1.283001e-05  
0.03329246     1.29046e-05    1.29046e-05   
0.03349277     1.297923e-05   1.297923e-05  
0.03369325     1.305388e-05   1.305388e-05  
0.0338939      1.312856e-05   1.312856e-05  
0.03409471     1.320326e-05   1.320326e-05  
0.03429569     1.3278e-05     1.3278e-05    
0.03449683     1.335276e-05   1.335276e-05  
0.03469815     1.342755e-05   1.342755e-05  
0.03489959     1.350235e-05   1.350235e-05  
0.0351012      1.357718e-05   1.357718e-05  
0.03530298     1.365204e-05   1.365204e-05  
0.03550492     1.372693e-05   1.372693e-05  
0.03570704     1.380184e-05   1.380184e-05  
0.03590932     1.387679e-05   1.387679e-05  
0.03611173     1.395174e-05   1.395174e-05  
0.03631432     1.402673e-05   1.402673e-05  
0.03651707     1.410174e-05   1.410174e-05  
0.03671999     1.417678e-05   1.417678e-05  
0.03692305     1.425183e-05   1.425183e-05  
0.03712627     1.432691e-05   1.432691e-05  
0.03732967     1.440202e-05   1.440202e-05  
0.03753319     1.447715e-05   1.447715e-05  
0.03773689     1.45523e-05    1.45523e-05   
0.03794076     1.462748e-05   1.462748e-05  
0.03814475     1.470268e-05   1.470268e-05  
0.03834893     1.47779e-05    1.47779e-05   
0.03855323     1.485313e-05   1.485313e-05  
0.03875771     1.49284e-05    1.49284e-05   
0.03896231     1.500368e-05   1.500368e-05  
0.03916709     1.507898e-05   1.507898e-05  
0.03937201     1.51543e-05    1.51543e-05   
0.03957709     1.522965e-05   1.522965e-05  
0.03978231     1.530502e-05   1.530502e-05  
0.03998766     1.538039e-05   1.538039e-05  
0.04019319     1.54558e-05    1.54558e-05   
0.04039885     1.553122e-05   1.553122e-05  
0.04060464     1.560665e-05   1.560665e-05  
0.04081056     1.56821e-05    1.56821e-05   
0.04101661     1.575755e-05   1.575755e-05  
0.0412228      1.583303e-05   1.583303e-05  
0.04142913     1.590851e-05   1.590851e-05  
0.04163558     1.598401e-05   1.598401e-05  
0.04184217     1.605953e-05   1.605953e-05  
0.04204885     1.613504e-05   1.613504e-05  
0.04225566     1.621056e-05   1.621056e-05  
0.0424626      1.62861e-05    1.62861e-05   
0.04266968     1.636165e-05   1.636165e-05  
0.04287685     1.64372e-05    1.64372e-05   
0.04308416     1.651277e-05   1.651277e-05  
0.0432916      1.658834e-05   1.658834e-05  
0.04349917     1.666394e-05   1.666394e-05  
0.04370683     1.673953e-05   1.673953e-05  
0.04391463     1.681513e-05   1.681513e-05  
0.04412257     1.689075e-05   1.689075e-05  
0.04433059     1.696636e-05   1.696636e-05  
0.04453876     1.704199e-05   1.704199e-05  
0.04474705     1.711763e-05   1.711763e-05  
0.04495544     1.719327e-05   1.719327e-05  
0.04516397     1.726893e-05   1.726893e-05  
0.04537258     1.734458e-05   1.734458e-05  
0.04558134     1.742025e-05   1.742025e-05  
0.04579018     1.749591e-05   1.749591e-05  
0.04599916     1.757159e-05   1.757159e-05  
0.04620824     1.764727e-05   1.764727e-05  
0.04641745     1.772296e-05   1.772296e-05  
0.04662675     1.779865e-05   1.779865e-05  
0.04683619     1.787435e-05   1.787435e-05  
0.04704572     1.795005e-05   1.795005e-05  
0.04725539     1.802577e-05   1.802577e-05  
0.04746516     1.810148e-05   1.810148e-05  
0.04767506     1.817721e-05   1.817721e-05  
0.04788505     1.825294e-05   1.825294e-05  
0.04809519     1.832868e-05   1.832868e-05  
0.04830541     1.840442e-05   1.840442e-05  
0.04851578     1.848017e-05   1.848017e-05  
0.04872624     1.855592e-05   1.855592e-05  
0.04893684     1.863169e-05   1.863169e-05  
0.04914753     1.870745e-05   1.870745e-05  
0.04935836     1.878323e-05   1.878323e-05  
0.04956928     1.885901e-05   1.885901e-05  
0.04978035     1.893481e-05   1.893481e-05  
0.04999151     1.90106e-05    1.90106e-05   
0.05020281     1.90864e-05    1.90864e-05   
0.05041421     1.916221e-05   1.916221e-05  
0.05062574     1.923803e-05   1.923803e-05  
0.05083742     1.931386e-05   1.931386e-05  
0.05104919     1.93897e-05    1.93897e-05   
0.05126111     1.946555e-05   1.946555e-05  
0.05147311     1.954139e-05   1.954139e-05  
0.05168527     1.961726e-05   1.961726e-05  
0.05189751     1.969312e-05   1.969312e-05  
0.0521099      1.976899e-05   1.976899e-05  
0.05232238     1.984487e-05   1.984487e-05  
0.05253501     1.992076e-05   1.992076e-05  
0.05274773     1.999665e-05   1.999665e-05  
0.0529606      2.007255e-05   2.007255e-05  
0.05317356     2.014846e-05   2.014846e-05  
0.05338667     2.022437e-05   2.022437e-05  
0.05359987     2.030029e-05   2.030029e-05  
0.05381321     2.037622e-05   2.037622e-05  
0.05402665     2.045216e-05   2.045216e-05  
0.05424024     2.05281e-05    2.05281e-05   
0.05445392     2.060405e-05   2.060405e-05  
0.05466775     2.068001e-05   2.068001e-05  
0.05488172     2.075599e-05   2.075599e-05  
0.05509584     2.083198e-05   2.083198e-05  
0.05531006     2.090798e-05   2.090798e-05  
0.05552442     2.098399e-05   2.098399e-05  
0.05573888     2.105999e-05   2.105999e-05  
0.05595343     2.1136e-05     2.1136e-05    
0.05616814     2.121202e-05   2.121202e-05  
0.05638298     2.128806e-05   2.128806e-05  
0.05659793     2.13641e-05    2.13641e-05   
0.05681303     2.144015e-05   2.144015e-05  
0.05702822     2.151621e-05   2.151621e-05  
0.05724356     2.159228e-05   2.159228e-05  
0.05745899     2.166835e-05   2.166835e-05  
0.05767458     2.174443e-05   2.174443e-05  
0.05789026     2.182051e-05   2.182051e-05  
0.0581061      2.189662e-05   2.189662e-05  
0.05832208     2.197273e-05   2.197273e-05  
0.05853816     2.204885e-05   2.204885e-05  
0.05875439     2.212498e-05   2.212498e-05  
0.05897072     2.220111e-05   2.220111e-05  
0.05918719     2.227726e-05   2.227726e-05  
0.05940382     2.235343e-05   2.235343e-05  
0.05962055     2.242959e-05   2.242959e-05  
0.05983743     2.250578e-05   2.250578e-05  
0.06005445     2.258197e-05   2.258197e-05  
0.06027158     2.265817e-05   2.265817e-05  
0.06048886     2.273439e-05   2.273439e-05  
0.06070624     2.28106e-05    2.28106e-05   
0.06092377     2.288683e-05   2.288683e-05  
0.06114145     2.296308e-05   2.296308e-05  
0.06135923     2.303933e-05   2.303933e-05  
0.06157717     2.31156e-05    2.31156e-05   
0.06179525     2.319188e-05   2.319188e-05  
0.06201344     2.326816e-05   2.326816e-05  
0.06223178     2.334446e-05   2.334446e-05  
0.06245022     2.342076e-05   2.342076e-05  
0.06266881     2.349708e-05   2.349708e-05  
0.06288751     2.357339e-05   2.357339e-05  
0.06310636     2.364973e-05   2.364973e-05  
0.06332536     2.372608e-05   2.372608e-05  
0.06354447     2.380243e-05   2.380243e-05  
0.06376373     2.38788e-05    2.38788e-05   
0.06398309     2.395517e-05   2.395517e-05  
0.0642026      2.403155e-05   2.403155e-05  
0.06442222     2.410794e-05   2.410794e-05  
0.064642       2.418434e-05   2.418434e-05  
0.06486187     2.426074e-05   2.426074e-05  
0.06508191     2.433717e-05   2.433717e-05  
0.06530209     2.44136e-05    2.44136e-05   
0.06552239     2.449004e-05   2.449004e-05  
0.06574283     2.45665e-05    2.45665e-05   
0.06596339     2.464296e-05   2.464296e-05  
0.06618404     2.471942e-05   2.471942e-05  
0.06640485     2.479589e-05   2.479589e-05  
0.06662577     2.487237e-05   2.487237e-05  
0.06684684     2.494886e-05   2.494886e-05  
0.06706802     2.502535e-05   2.502535e-05  
0.06728936     2.510187e-05   2.510187e-05  
0.0675108      2.517838e-05   2.517838e-05  
0.0677324      2.525491e-05   2.525491e-05  
0.0679541      2.533144e-05   2.533144e-05  
0.06817597     2.540799e-05   2.540799e-05  
0.06839794     2.548454e-05   2.548454e-05  
0.06862006     2.556111e-05   2.556111e-05  
0.0688423      2.563768e-05   2.563768e-05  
0.06906469     2.571426e-05   2.571426e-05  
0.06928719     2.579085e-05   2.579085e-05  
0.06950985     2.586746e-05   2.586746e-05  
0.06973261     2.594406e-05   2.594406e-05  
0.06995554     2.602069e-05   2.602069e-05  
0.07017857     2.609732e-05   2.609732e-05  
0.07040171     2.617394e-05   2.617394e-05  
0.07062501     2.625059e-05   2.625059e-05  
0.07084842     2.632723e-05   2.632723e-05  
0.07107193     2.640388e-05   2.640388e-05  
0.07129555     2.648053e-05   2.648053e-05  
0.07151934     2.655719e-05   2.655719e-05  
0.07174323     2.663386e-05   2.663386e-05  
0.07196728     2.671055e-05   2.671055e-05  
0.07219145     2.678724e-05   2.678724e-05  
0.07241572     2.686392e-05   2.686392e-05  
0.07264015     2.694063e-05   2.694063e-05  
0.07286469     2.701734e-05   2.701734e-05  
0.07308934     2.709405e-05   2.709405e-05  
0.07331416     2.717078e-05   2.717078e-05  
0.07353908     2.724751e-05   2.724751e-05  
0.07376412     2.732424e-05   2.732424e-05  
0.07398931     2.740099e-05   2.740099e-05  
0.07421462     2.747774e-05   2.747774e-05  
0.07444009     2.755451e-05   2.755451e-05  
0.07466567     2.763128e-05   2.763128e-05  
0.07489136     2.770805e-05   2.770805e-05  
0.07511722     2.778484e-05   2.778484e-05  
0.07534324     2.786166e-05   2.786166e-05  
0.07556938     2.793847e-05   2.793847e-05  
0.07579567     2.80153e-05    2.80153e-05   
0.07602214     2.809216e-05   2.809216e-05  
0.07624872     2.816901e-05   2.816901e-05  
0.07647546     2.824589e-05   2.824589e-05  
0.07670237     2.832278e-05   2.832278e-05  
0.07692939     2.839968e-05   2.839968e-05  
0.07715658     2.84766e-05    2.84766e-05   
0.07738388     2.855351e-05   2.855351e-05  
0.07761135     2.863045e-05   2.863045e-05  
0.07783893     2.870739e-05   2.870739e-05  
0.07806668     2.878435e-05   2.878435e-05  
0.07829455     2.886131e-05   2.886131e-05  
0.07852258     2.89383e-05    2.89383e-05   
0.07875072     2.901528e-05   2.901528e-05  
0.07897904     2.909229e-05   2.909229e-05  
0.07920747     2.916929e-05   2.916929e-05  
0.07943606     2.924632e-05   2.924632e-05  
0.07966477     2.932335e-05   2.932335e-05  
0.07989366     2.94004e-05    2.94004e-05   
0.08012265     2.947745e-05   2.947745e-05  
0.08035176     2.95545e-05    2.95545e-05   
0.08058099     2.963156e-05   2.963156e-05  
0.08081038     2.970863e-05   2.970863e-05  
0.08103989     2.978571e-05   2.978571e-05  
0.08126952     2.986279e-05   2.986279e-05  
0.08149932     2.993989e-05   2.993989e-05  
0.08172923     3.001699e-05   3.001699e-05  
0.08195931     3.009412e-05   3.009412e-05  
0.08218952     3.017124e-05   3.017124e-05  
0.08241989     3.024839e-05   3.024839e-05  
0.08265038     3.032554e-05   3.032554e-05  
0.08288104     3.040271e-05   3.040271e-05  
0.08311182     3.047988e-05   3.047988e-05  
0.08334278     3.055707e-05   3.055707e-05  
0.08357385     3.063427e-05   3.063427e-05  
0.08380504     3.071147e-05   3.071147e-05  
0.0840364      3.078869e-05   3.078869e-05  
0.08426788     3.086591e-05   3.086591e-05  
0.08449947     3.094314e-05   3.094314e-05  
0.08473125     3.102038e-05   3.102038e-05  
0.08496314     3.109763e-05   3.109763e-05  
0.08519514     3.117489e-05   3.117489e-05  
0.08542733     3.125216e-05   3.125216e-05  
0.08565963     3.132943e-05   3.132943e-05  
0.08589205     3.140671e-05   3.140671e-05  
0.08612459     3.148399e-05   3.148399e-05  
0.0863573      3.15613e-05    3.15613e-05   
0.08659014     3.16386e-05    3.16386e-05   
0.08682309     3.171591e-05   3.171591e-05  
0.08705616     3.179322e-05   3.179322e-05  
0.08728941     3.187055e-05   3.187055e-05  
0.08752278     3.194789e-05   3.194789e-05  
0.08775627     3.202523e-05   3.202523e-05  
0.08798988     3.210257e-05   3.210257e-05  
0.08822367     3.217993e-05   3.217993e-05  
0.08845758     3.22573e-05    3.22573e-05   
0.08869161     3.233467e-05   3.233467e-05  
0.08892576     3.241204e-05   3.241204e-05  
0.08916009     3.248944e-05   3.248944e-05  
0.08939454     3.256683e-05   3.256683e-05  
0.08962911     3.264424e-05   3.264424e-05  
0.0898638      3.272164e-05   3.272164e-05  
0.09009861     3.279905e-05   3.279905e-05  
0.09033355     3.287646e-05   3.287646e-05  
0.09056861     3.295387e-05   3.295387e-05  
0.09080378     3.303129e-05   3.303129e-05  
0.09103908     3.31087e-05    3.31087e-05   
0.0912745      3.318613e-05   3.318613e-05  
0.09151011     3.326357e-05   3.326357e-05  
0.09174583     3.334102e-05   3.334102e-05  
0.09198168     3.341847e-05   3.341847e-05  
0.09221765     3.349593e-05   3.349593e-05  
0.09245375     3.357339e-05   3.357339e-05  
0.09268997     3.365085e-05   3.365085e-05  
0.09292631     3.372831e-05   3.372831e-05  
0.09316277     3.380578e-05   3.380578e-05  
0.09339936     3.388326e-05   3.388326e-05  
0.09363607     3.396073e-05   3.396073e-05  
0.0938729      3.403821e-05   3.403821e-05  
0.09410986     3.411569e-05   3.411569e-05  
0.09434694     3.419318e-05   3.419318e-05  
0.09458421     3.427069e-05   3.427069e-05  
0.0948216      3.43482e-05    3.43482e-05   
0.09505912     3.442572e-05   3.442572e-05  
0.09529676     3.450324e-05   3.450324e-05  
0.09553453     3.458077e-05   3.458077e-05  
0.09577242     3.46583e-05    3.46583e-05   
0.09601044     3.473583e-05   3.473583e-05  
0.09624858     3.481336e-05   3.481336e-05  
0.09648685     3.48909e-05    3.48909e-05   
0.0967253      3.496847e-05   3.496847e-05  
0.09696382     3.504602e-05   3.504602e-05  
0.09720247     3.512357e-05   3.512357e-05  
0.09744124     3.520112e-05   3.520112e-05  
0.09768014     3.527868e-05   3.527868e-05  
0.09791917     3.535625e-05   3.535625e-05  
0.09815832     3.543381e-05   3.543381e-05  
0.0983976      3.551139e-05   3.551139e-05  
0.098637       3.558896e-05   3.558896e-05  
0.09887654     3.566654e-05   3.566654e-05  
0.09911613     3.574411e-05   3.574411e-05  
0.09935586     3.582167e-05   3.582167e-05  
0.09959571     3.589925e-05   3.589925e-05  
0.09983569     3.597682e-05   3.597682e-05  
0.1000757      3.605438e-05   3.605438e-05  
0.1003159      3.613195e-05   3.613195e-05  
0.1005562      3.620952e-05   3.620952e-05  
0.1007966      3.628707e-05   3.628707e-05  
0.1010371      3.636463e-05   3.636463e-05  
0.1012777      3.644219e-05   3.644219e-05  
0.1015184      3.651975e-05   3.651975e-05  
0.1017593      3.659733e-05   3.659733e-05  
0.1020003      3.66749e-05    3.66749e-05   
0.1022414      3.675246e-05   3.675246e-05  
0.1024826      3.683002e-05   3.683002e-05  
0.1027239      3.690759e-05   3.690759e-05  
0.1029654      3.698517e-05   3.698517e-05  
0.103207       3.706274e-05   3.706274e-05  
0.1034487      3.714033e-05   3.714033e-05  
0.1036906      3.721791e-05   3.721791e-05  
0.1039325      3.729548e-05   3.729548e-05  
0.1041745      3.737306e-05   3.737306e-05  
0.1044167      3.745064e-05   3.745064e-05  
0.104659       3.752823e-05   3.752823e-05  
0.1049015      3.760582e-05   3.760582e-05  
0.105144       3.768341e-05   3.768341e-05  
0.1053867      3.776099e-05   3.776099e-05  
0.1056295      3.783858e-05   3.783858e-05  
0.1058724      3.791617e-05   3.791617e-05  
0.1061154      3.799377e-05   3.799377e-05  
0.1063586      3.807137e-05   3.807137e-05  
0.1066019      3.814897e-05   3.814897e-05  
0.1068452      3.822656e-05   3.822656e-05  
0.1070888      3.830418e-05   3.830418e-05  
0.1073325      3.83818e-05    3.83818e-05   
0.1075763      3.845943e-05   3.845943e-05  
0.1078203      3.853706e-05   3.853706e-05  
0.1080644      3.86147e-05    3.86147e-05   
0.1083086      3.869234e-05   3.869234e-05  
0.108553       3.876999e-05   3.876999e-05  
0.1087975      3.884764e-05   3.884764e-05  
0.1090421      3.89253e-05    3.89253e-05   
0.1092869      3.900297e-05   3.900297e-05  
0.1095318      3.908064e-05   3.908064e-05  
0.1097768      3.915831e-05   3.915831e-05  
0.110022       3.9236e-05     3.9236e-05    
0.1102673      3.931368e-05   3.931368e-05  
0.1105128      3.939138e-05   3.939138e-05  
0.1107584      3.94691e-05    3.94691e-05   
0.1110042      3.954683e-05   3.954683e-05  
0.1112501      3.962456e-05   3.962456e-05  
0.1114962      3.97023e-05    3.97023e-05   
0.1117423      3.978004e-05   3.978004e-05  
0.1119887      3.985779e-05   3.985779e-05  
0.1122351      3.993555e-05   3.993555e-05  
0.1124817      4.001331e-05   4.001331e-05  
0.1127285      4.00911e-05    4.00911e-05   
0.1129755      4.01689e-05    4.01689e-05   
0.1132226      4.02467e-05    4.02467e-05   
0.1134698      4.032451e-05   4.032451e-05  
0.1137172      4.040232e-05   4.040232e-05  
0.1139646      4.048014e-05   4.048014e-05  
0.1142123      4.055797e-05   4.055797e-05  
0.1144601      4.06358e-05    4.06358e-05   
0.114708       4.071364e-05   4.071364e-05  
0.114956       4.079149e-05   4.079149e-05  
0.1152042      4.086934e-05   4.086934e-05  
0.1154525      4.09472e-05    4.09472e-05   
0.115701       4.102507e-05   4.102507e-05  
0.1159496      4.110294e-05   4.110294e-05  
0.1161984      4.118082e-05   4.118082e-05  
0.1164472      4.12587e-05    4.12587e-05   
0.1166963      4.13366e-05    4.13366e-05   
0.1169455      4.141452e-05   4.141452e-05  
0.1171949      4.149244e-05   4.149244e-05  
0.1174444      4.157038e-05   4.157038e-05  
0.1176941      4.164832e-05   4.164832e-05  
0.1179439      4.172627e-05   4.172627e-05  
0.1181938      4.180422e-05   4.180422e-05  
0.1184439      4.188218e-05   4.188218e-05  
0.1186941      4.196015e-05   4.196015e-05  
0.1189445      4.203813e-05   4.203813e-05  
0.119195       4.211611e-05   4.211611e-05  
0.1194457      4.21941e-05    4.21941e-05   
0.1196965      4.227209e-05   4.227209e-05  
0.1199474      4.23501e-05    4.23501e-05   
0.1201985      4.242811e-05   4.242811e-05  
0.1204497      4.250613e-05   4.250613e-05  
0.120701       4.258413e-05   4.258413e-05  
0.1209525      4.266214e-05   4.266214e-05  
0.1212041      4.274016e-05   4.274016e-05  
0.1214558      4.281818e-05   4.281818e-05  
0.1217077      4.289621e-05   4.289621e-05  
0.1219597      4.297425e-05   4.297425e-05  
0.1222119      4.30523e-05    4.30523e-05   
0.1224642      4.313036e-05   4.313036e-05  
0.1227166      4.320842e-05   4.320842e-05  
0.1229692      4.328649e-05   4.328649e-05  
0.123222       4.336457e-05   4.336457e-05  
0.1234749      4.344265e-05   4.344265e-05  
0.1237279      4.352074e-05   4.352074e-05  
0.123981       4.359882e-05   4.359882e-05  
0.1242343      4.367691e-05   4.367691e-05  
0.1244877      4.3755e-05     4.3755e-05    
0.1247412      4.38331e-05    4.38331e-05   
0.1249949      4.391121e-05   4.391121e-05  
0.1252487      4.39893e-05    4.39893e-05   
0.1255026      4.406741e-05   4.406741e-05  
0.1257567      4.414552e-05   4.414552e-05  
0.1260109      4.422363e-05   4.422363e-05  
0.1262653      4.430176e-05   4.430176e-05  
0.1265197      4.437987e-05   4.437987e-05  
0.1267743      4.445799e-05   4.445799e-05  
0.127029       4.453612e-05   4.453612e-05  
0.1272839      4.461425e-05   4.461425e-05  
0.1275389      4.469238e-05   4.469238e-05  
0.127794       4.47705e-05    4.47705e-05   
0.1280492      4.484864e-05   4.484864e-05  
0.1283046      4.492679e-05   4.492679e-05  
0.1285602      4.500494e-05   4.500494e-05  
0.1288159      4.508311e-05   4.508311e-05  
0.1290717      4.516128e-05   4.516128e-05  
0.1293277      4.523946e-05   4.523946e-05  
0.1295839      4.531765e-05   4.531765e-05  
0.1298402      4.539584e-05   4.539584e-05  
0.1300967      4.547405e-05   4.547405e-05  
0.1303532      4.555224e-05   4.555224e-05  
0.1306099      4.563044e-05   4.563044e-05  
0.1308667      4.570865e-05   4.570865e-05  
0.1311236      4.578684e-05   4.578684e-05  
0.1313807      4.586505e-05   4.586505e-05  
0.1316378      4.594324e-05   4.594324e-05  
0.1318951      4.602143e-05   4.602143e-05  
0.1321526      4.609964e-05   4.609964e-05  
0.1324102      4.617786e-05   4.617786e-05  
0.1326678      4.625606e-05   4.625606e-05  
0.1329257      4.633427e-05   4.633427e-05  
0.1331836      4.641249e-05   4.641249e-05  
0.1334417      4.649069e-05   4.649069e-05  
0.1336999      4.656891e-05   4.656891e-05  
0.1339583      4.664713e-05   4.664713e-05  
0.1342167      4.672534e-05   4.672534e-05  
0.1344753      4.680356e-05   4.680356e-05  
0.1347341      4.688179e-05   4.688179e-05  
0.1349929      4.696e-05      4.696e-05     
0.1352519      4.703823e-05   4.703823e-05  
0.135511       4.711646e-05   4.711646e-05  
0.1357702      4.719468e-05   4.719468e-05  
0.1360296      4.727291e-05   4.727291e-05  
0.1362891      4.735114e-05   4.735114e-05  
0.1365488      4.742939e-05   4.742939e-05  
0.1368086      4.750763e-05   4.750763e-05  
0.1370685      4.758587e-05   4.758587e-05  
0.1373286      4.766412e-05   4.766412e-05  
0.1375887      4.774236e-05   4.774236e-05  
0.1378491      4.782061e-05   4.782061e-05  
0.1381095      4.789887e-05   4.789887e-05  