# Probe 0 (0 0 0)
# Probe 1 (0 0.011 0)
# Time         0              1             
0              0              0             
1.199999e-06   8.754396e-05   8.754396e-05  
2.639996e-06   8.754368e-05   8.754368e-05  
4.367991e-06   8.754333e-05   8.754333e-05  
6.441582e-06   8.754288e-05   8.754288e-05  
8.92989e-06    8.754235e-05   8.754235e-05  
1.191586e-05   8.75417e-05    8.75417e-05   
1.549901e-05   8.754093e-05   8.754093e-05  
1.97988e-05    8.754e-05      8.754e-05     
2.495853e-05   8.753888e-05   8.753888e-05  
3.115017e-05   8.753754e-05   8.753754e-05  
3.858013e-05   8.753594e-05   8.753594e-05  
4.749602e-05   8.753401e-05   8.753401e-05  
5.819505e-05   8.753169e-05   8.753169e-05  
7.103374e-05   8.752892e-05   8.752892e-05  
8.644002e-05   8.752559e-05   8.752559e-05  
0.0001049275   8.752159e-05   8.752159e-05  
0.0001271124   8.751679e-05   8.751679e-05  
0.0001537338   8.751104e-05   8.751104e-05  
0.0001856788   8.750413e-05   8.750413e-05  
0.0002240123   8.749584e-05   8.749584e-05  
0.0002700107   8.74859e-05    8.74859e-05   
0.0003252078   8.747398e-05   8.747398e-05  
0.0003914421   8.745967e-05   8.745967e-05  
0.000470707    8.744256e-05   8.744256e-05  
0.0005632988   8.742258e-05   8.742258e-05  
0.000669588    8.739965e-05   8.739965e-05  
0.0007900037   8.737369e-05   8.737369e-05  
0.0009250321   8.734459e-05   8.734459e-05  
0.001075179    8.731226e-05   8.731226e-05  
0.001231799    8.727856e-05   8.727856e-05  
0.001393255    8.724384e-05   8.724384e-05  
0.001554581    8.720918e-05   8.720918e-05  
0.001715699    8.717459e-05   8.717459e-05  
0.001876608    8.714007e-05   8.714007e-05  
0.002037285    8.710562e-05   8.710562e-05  
0.002197755    8.707125e-05   8.707125e-05  
0.002358045    8.703694e-05   8.703694e-05  
0.002518205    8.700268e-05   8.700268e-05  
0.002678263    8.696847e-05   8.696847e-05  
0.002838244    8.693431e-05   8.693431e-05  
0.002998174    8.690018e-05   8.690018e-05  
0.003158078    8.686607e-05   8.686607e-05  
0.003317982    8.6832e-05     8.6832e-05    
0.003477886    8.679795e-05   8.679795e-05  
0.003637842    8.676392e-05   8.676392e-05  
0.003797874    8.672989e-05   8.672989e-05  
0.003958035    8.669586e-05   8.669586e-05  
0.004118351    8.666183e-05   8.666183e-05  
0.004278822    8.662778e-05   8.662778e-05  
0.004439474    8.659373e-05   8.659373e-05  
0.004600308    8.655966e-05   8.655966e-05  
0.004761349    8.652557e-05   8.652557e-05  
0.0049226      8.649147e-05   8.649147e-05  
0.005084086    8.645734e-05   8.645734e-05  
0.005245782    8.642319e-05   8.642319e-05  
0.005407715    8.638901e-05   8.638901e-05  
0.005569886    8.635482e-05   8.635482e-05  
0.005732348    8.632058e-05   8.632058e-05  
0.005895049    8.628632e-05   8.628632e-05  
0.006058071    8.625203e-05   8.625203e-05  
0.006221333    8.62177e-05    8.62177e-05   
0.006384945    8.618333e-05   8.618333e-05  
0.006548854    8.614892e-05   8.614892e-05  
0.006713115    8.611447e-05   8.611447e-05  
0.006877648    8.607998e-05   8.607998e-05  
0.007042536    8.604545e-05   8.604545e-05  
0.007207726    8.601088e-05   8.601088e-05  
0.007373247    8.597626e-05   8.597626e-05  
0.007539072    8.594161e-05   8.594161e-05  
0.00770523     8.590692e-05   8.590692e-05  
0.007871722    8.587218e-05   8.587218e-05  
0.00803855     8.583741e-05   8.583741e-05  
0.008205716    8.580258e-05   8.580258e-05  
0.008373192    8.576772e-05   8.576772e-05  
0.008541009    8.573282e-05   8.573282e-05  
0.008709167    8.569787e-05   8.569787e-05  
0.008877667    8.566288e-05   8.566288e-05  
0.009046513    8.562784e-05   8.562784e-05  
0.009215704    8.559276e-05   8.559276e-05  
0.009385214    8.555764e-05   8.555764e-05  
0.009555072    8.552248e-05   8.552248e-05  
0.009725281    8.548727e-05   8.548727e-05  
0.009895842    8.545202e-05   8.545202e-05  
0.01006673     8.541673e-05   8.541673e-05  
0.01023797     8.538139e-05   8.538139e-05  
0.01040953     8.534601e-05   8.534601e-05  
0.01058145     8.531059e-05   8.531059e-05  
0.01075371     8.527513e-05   8.527513e-05  
0.01092629     8.523962e-05   8.523962e-05  
0.0110992      8.520408e-05   8.520408e-05  
0.01127245     8.51685e-05    8.51685e-05   
0.01144607     8.513287e-05   8.513287e-05  
0.01162002     8.50972e-05    8.50972e-05   
0.01179427     8.50615e-05    8.50615e-05   
0.01196884     8.502576e-05   8.502576e-05  
0.01214374     8.498999e-05   8.498999e-05  
0.01231895     8.495417e-05   8.495417e-05  
0.01249445     8.491833e-05   8.491833e-05  
0.01267025     8.488246e-05   8.488246e-05  
0.01284634     8.484655e-05   8.484655e-05  
0.01302275     8.481062e-05   8.481062e-05  
0.01319943     8.477465e-05   8.477465e-05  
0.01337641     8.473865e-05   8.473865e-05  
0.01355367     8.470263e-05   8.470263e-05  
0.01373124     8.466657e-05   8.466657e-05  
0.01390911     8.463048e-05   8.463048e-05  
0.01408727     8.459436e-05   8.459436e-05  
0.01426568     8.455822e-05   8.455822e-05  
0.01444438     8.452205e-05   8.452205e-05  
0.01462338     8.448585e-05   8.448585e-05  
0.01480264     8.444963e-05   8.444963e-05  
0.01498216     8.441338e-05   8.441338e-05  
0.01516194     8.437711e-05   8.437711e-05  
0.01534201     8.434081e-05   8.434081e-05  
0.01552235     8.430449e-05   8.430449e-05  
0.01570296     8.426815e-05   8.426815e-05  
0.01588383     8.423178e-05   8.423178e-05  
0.01606497     8.419539e-05   8.419539e-05  
0.01624637     8.415898e-05   8.415898e-05  
0.01642804     8.412254e-05   8.412254e-05  
0.01660998     8.408608e-05   8.408608e-05  
0.01679216     8.40496e-05    8.40496e-05   
0.01697461     8.40131e-05    8.40131e-05   
0.01715732     8.397657e-05   8.397657e-05  
0.01734028     8.394003e-05   8.394003e-05  
0.01752351     8.390346e-05   8.390346e-05  
0.01770698     8.386688e-05   8.386688e-05  
0.01789072     8.383027e-05   8.383027e-05  
0.01807471     8.379365e-05   8.379365e-05  
0.01825897     8.3757e-05     8.3757e-05    
0.01844347     8.372034e-05   8.372034e-05  
0.01862822     8.368365e-05   8.368365e-05  
0.01881321     8.364695e-05   8.364695e-05  
0.01899848     8.361023e-05   8.361023e-05  
0.01918399     8.357349e-05   8.357349e-05  
0.01936975     8.353673e-05   8.353673e-05  
0.01955576     8.349995e-05   8.349995e-05  
0.01974201     8.346316e-05   8.346316e-05  
0.01992848     8.342635e-05   8.342635e-05  
0.0201152      8.338953e-05   8.338953e-05  
0.02030213     8.33527e-05    8.33527e-05   
0.02048927     8.331585e-05   8.331585e-05  
0.02067663     8.3279e-05     8.3279e-05    
0.0208642      8.324213e-05   8.324213e-05  
0.02105199     8.320525e-05   8.320525e-05  
0.02124        8.316837e-05   8.316837e-05  
0.02142822     8.313147e-05   8.313147e-05  
0.02161666     8.309456e-05   8.309456e-05  
0.02180532     8.305764e-05   8.305764e-05  
0.02199416     8.302071e-05   8.302071e-05  
0.02218322     8.298378e-05   8.298378e-05  
0.0223725      8.294683e-05   8.294683e-05  
0.022562       8.290988e-05   8.290988e-05  
0.02275172     8.287291e-05   8.287291e-05  
0.02294162     8.283593e-05   8.283593e-05  
0.02313175     8.279895e-05   8.279895e-05  
0.0233221      8.276196e-05   8.276196e-05  
0.02351263     8.272496e-05   8.272496e-05  
0.02370339     8.268795e-05   8.268795e-05  
0.02389433     8.265093e-05   8.265093e-05  
0.0240855      8.261391e-05   8.261391e-05  
0.02427686     8.257688e-05   8.257688e-05  
0.02446844     8.253984e-05   8.253984e-05  
0.02466021     8.250279e-05   8.250279e-05  
0.02485217     8.246574e-05   8.246574e-05  
0.02504435     8.242868e-05   8.242868e-05  
0.02523673     8.239162e-05   8.239162e-05  
0.02542929     8.235455e-05   8.235455e-05  
0.02562209     8.231747e-05   8.231747e-05  
0.02581507     8.228038e-05   8.228038e-05  
0.02600828     8.224329e-05   8.224329e-05  
0.02620169     8.220618e-05   8.220618e-05  
0.02639529     8.216908e-05   8.216908e-05  
0.02658908     8.213197e-05   8.213197e-05  
0.02678306     8.209486e-05   8.209486e-05  
0.02697724     8.205774e-05   8.205774e-05  
0.02717161     8.202061e-05   8.202061e-05  
0.02736618     8.198349e-05   8.198349e-05  
0.02756094     8.194636e-05   8.194636e-05  
0.02775589     8.190922e-05   8.190922e-05  
0.02795104     8.187208e-05   8.187208e-05  
0.02814639     8.183493e-05   8.183493e-05  
0.02834194     8.179778e-05   8.179778e-05  
0.02853768     8.176063e-05   8.176063e-05  
0.02873362     8.172347e-05   8.172347e-05  
0.02892975     8.168631e-05   8.168631e-05  
0.02912609     8.164914e-05   8.164914e-05  
0.02932262     8.161197e-05   8.161197e-05  
0.02951935     8.157479e-05   8.157479e-05  
0.02971628     8.153761e-05   8.153761e-05  
0.02991342     8.150042e-05   8.150042e-05  
0.03011075     8.146323e-05   8.146323e-05  
0.03030824     8.142604e-05   8.142604e-05  
0.03050594     8.138885e-05   8.138885e-05  
0.03070383     8.135165e-05   8.135165e-05  
0.03090189     8.131445e-05   8.131445e-05  
0.03110015     8.127725e-05   8.127725e-05  
0.03129857     8.124006e-05   8.124006e-05  
0.0314972      8.120286e-05   8.120286e-05  
0.03169599     8.116566e-05   8.116566e-05  
0.03189494     8.112846e-05   8.112846e-05  
0.03209406     8.109127e-05   8.109127e-05  
0.03229338     8.105407e-05   8.105407e-05  
0.03249287     8.101687e-05   8.101687e-05  
0.03269252     8.097968e-05   8.097968e-05  
0.03289233     8.094249e-05   8.094249e-05  
0.03309231     8.09053e-05    8.09053e-05   
0.03329246     8.086811e-05   8.086811e-05  
0.03349277     8.083093e-05   8.083093e-05  
0.03369325     8.079375e-05   8.079375e-05  
0.0338939      8.075657e-05   8.075657e-05  
0.03409471     8.07194e-05    8.07194e-05   
0.03429569     8.068222e-05   8.068222e-05  
0.03449683     8.064505e-05   8.064505e-05  
0.03469815     8.060789e-05   8.060789e-05  
0.03489959     8.057073e-05   8.057073e-05  
0.0351012      8.053357e-05   8.053357e-05  
0.03530298     8.049642e-05   8.049642e-05  
0.03550492     8.045927e-05   8.045927e-05  
0.03570704     8.042213e-05   8.042213e-05  
0.03590932     8.038498e-05   8.038498e-05  
0.03611173     8.034785e-05   8.034785e-05  
0.03631432     8.031071e-05   8.031071e-05  
0.03651707     8.027359e-05   8.027359e-05  
0.03671999     8.023646e-05   8.023646e-05  
0.03692305     8.019934e-05   8.019934e-05  
0.03712627     8.016223e-05   8.016223e-05  
0.03732967     8.012512e-05   8.012512e-05  
0.03753319     8.008801e-05   8.008801e-05  
0.03773689     8.005091e-05   8.005091e-05  
0.03794076     8.001382e-05   8.001382e-05  
0.03814475     7.997673e-05   7.997673e-05  
0.03834893     7.993965e-05   7.993965e-05  
0.03855323     7.990257e-05   7.990257e-05  
0.03875771     7.98655e-05    7.98655e-05   
0.03896231     7.982844e-05   7.982844e-05  
0.03916709     7.979138e-05   7.979138e-05  
0.03937201     7.975433e-05   7.975433e-05  
0.03957709     7.971728e-05   7.971728e-05  
0.03978231     7.968025e-05   7.968025e-05  
0.03998766     7.964322e-05   7.964322e-05  
0.04019319     7.960619e-05   7.960619e-05  
0.04039885     7.956918e-05   7.956918e-05  
0.04060464     7.953218e-05   7.953218e-05  
0.04081056     7.949518e-05   7.949518e-05  
0.04101661     7.94582e-05    7.94582e-05   
0.0412228      7.942122e-05   7.942122e-05  
0.04142913     7.938426e-05   7.938426e-05  
0.04163558     7.93473e-05    7.93473e-05   
0.04184217     7.931036e-05   7.931036e-05  
0.04204885     7.927343e-05   7.927343e-05  
0.04225566     7.923652e-05   7.923652e-05  
0.0424626      7.919961e-05   7.919961e-05  
0.04266968     7.916272e-05   7.916272e-05  
0.04287685     7.912584e-05   7.912584e-05  
0.04308416     7.908897e-05   7.908897e-05  
0.0432916      7.905211e-05   7.905211e-05  
0.04349917     7.901526e-05   7.901526e-05  
0.04370683     7.897843e-05   7.897843e-05  
0.04391463     7.894161e-05   7.894161e-05  
0.04412257     7.89048e-05    7.89048e-05   
0.04433059     7.886801e-05   7.886801e-05  
0.04453876     7.883123e-05   7.883123e-05  
0.04474705     7.879445e-05   7.879445e-05  
0.04495544     7.87577e-05    7.87577e-05   
0.04516397     7.872095e-05   7.872095e-05  
0.04537258     7.868423e-05   7.868423e-05  
0.04558134     7.864751e-05   7.864751e-05  
0.04579018     7.861081e-05   7.861081e-05  
0.04599916     7.857412e-05   7.857412e-05  
0.04620824     7.853745e-05   7.853745e-05  
0.04641745     7.850078e-05   7.850078e-05  
0.04662675     7.846414e-05   7.846414e-05  
0.04683619     7.84275e-05    7.84275e-05   
0.04704572     7.839089e-05   7.839089e-05  
0.04725539     7.835428e-05   7.835428e-05  
0.04746516     7.831769e-05   7.831769e-05  
0.04767506     7.828111e-05   7.828111e-05  
0.04788505     7.824455e-05   7.824455e-05  
0.04809519     7.8208e-05     7.8208e-05    
0.04830541     7.817146e-05   7.817146e-05  
0.04851578     7.813494e-05   7.813494e-05  
0.04872624     7.809843e-05   7.809843e-05  
0.04893684     7.806193e-05   7.806193e-05  
0.04914753     7.802545e-05   7.802545e-05  
0.04935836     7.798898e-05   7.798898e-05  
0.04956928     7.795253e-05   7.795253e-05  
0.04978035     7.791608e-05   7.791608e-05  
0.04999151     7.787966e-05   7.787966e-05  
0.05020281     7.784324e-05   7.784324e-05  
0.05041421     7.780684e-05   7.780684e-05  
0.05062574     7.777046e-05   7.777046e-05  
0.05083742     7.773408e-05   7.773408e-05  
0.05104919     7.769771e-05   7.769771e-05  
0.05126111     7.766136e-05   7.766136e-05  
0.05147311     7.762503e-05   7.762503e-05  
0.05168527     7.75887e-05    7.75887e-05   
0.05189751     7.755239e-05   7.755239e-05  
0.0521099      7.75161e-05    7.75161e-05   
0.05232238     7.747981e-05   7.747981e-05  
0.05253501     7.744354e-05   7.744354e-05  
0.05274773     7.740729e-05   7.740729e-05  
0.0529606      7.737104e-05   7.737104e-05  
0.05317356     7.733482e-05   7.733482e-05  
0.05338667     7.72986e-05    7.72986e-05   
0.05359987     7.72624e-05    7.72624e-05   
0.05381321     7.722621e-05   7.722621e-05  
0.05402665     7.719004e-05   7.719004e-05  
0.05424024     7.715387e-05   7.715387e-05  
0.05445392     7.711772e-05   7.711772e-05  
0.05466775     7.708159e-05   7.708159e-05  
0.05488172     7.704546e-05   7.704546e-05  
0.05509584     7.700934e-05   7.700934e-05  
0.05531006     7.697324e-05   7.697324e-05  
0.05552442     7.693715e-05   7.693715e-05  
0.05573888     7.690107e-05   7.690107e-05  
0.05595343     7.686501e-05   7.686501e-05  
0.05616814     7.682896e-05   7.682896e-05  
0.05638298     7.679292e-05   7.679292e-05  
0.05659793     7.67569e-05    7.67569e-05   
0.05681303     7.672089e-05   7.672089e-05  
0.05702822     7.668489e-05   7.668489e-05  
0.05724356     7.664891e-05   7.664891e-05  
0.05745899     7.661294e-05   7.661294e-05  
0.05767458     7.657698e-05   7.657698e-05  
0.05789026     7.654104e-05   7.654104e-05  
0.0581061      7.65051e-05    7.65051e-05   
0.05832208     7.646918e-05   7.646918e-05  
0.05853816     7.643327e-05   7.643327e-05  
0.05875439     7.639737e-05   7.639737e-05  
0.05897072     7.636149e-05   7.636149e-05  
0.05918719     7.632562e-05   7.632562e-05  
0.05940382     7.628975e-05   7.628975e-05  
0.05962055     7.625391e-05   7.625391e-05  
0.05983743     7.621807e-05   7.621807e-05  
0.06005445     7.618224e-05   7.618224e-05  
0.06027158     7.614643e-05   7.614643e-05  
0.06048886     7.611063e-05   7.611063e-05  
0.06070624     7.607485e-05   7.607485e-05  
0.06092377     7.603907e-05   7.603907e-05  
0.06114145     7.60033e-05    7.60033e-05   
0.06135923     7.596755e-05   7.596755e-05  
0.06157717     7.593181e-05   7.593181e-05  
0.06179525     7.589608e-05   7.589608e-05  
0.06201344     7.586037e-05   7.586037e-05  
0.06223178     7.582466e-05   7.582466e-05  
0.06245022     7.578897e-05   7.578897e-05  
0.06266881     7.575329e-05   7.575329e-05  
0.06288751     7.571763e-05   7.571763e-05  
0.06310636     7.568197e-05   7.568197e-05  
0.06332536     7.564633e-05   7.564633e-05  
0.06354447     7.56107e-05    7.56107e-05   
0.06376373     7.557508e-05   7.557508e-05  
0.06398309     7.553947e-05   7.553947e-05  
0.0642026      7.550388e-05   7.550388e-05  
0.06442222     7.54683e-05    7.54683e-05   
0.064642       7.543273e-05   7.543273e-05  
0.06486187     7.539718e-05   7.539718e-05  
0.06508191     7.536164e-05   7.536164e-05  
0.06530209     7.532611e-05   7.532611e-05  
0.06552239     7.529059e-05   7.529059e-05  
0.06574283     7.525508e-05   7.525508e-05  
0.06596339     7.521959e-05   7.521959e-05  
0.06618404     7.518411e-05   7.518411e-05  
0.06640485     7.514865e-05   7.514865e-05  
0.06662577     7.51132e-05    7.51132e-05   
0.06684684     7.507776e-05   7.507776e-05  
0.06706802     7.504233e-05   7.504233e-05  
0.06728936     7.500692e-05   7.500692e-05  
0.0675108      7.497152e-05   7.497152e-05  
0.0677324      7.493613e-05   7.493613e-05  
0.0679541      7.490076e-05   7.490076e-05  
0.06817597     7.486539e-05   7.486539e-05  
0.06839794     7.483004e-05   7.483004e-05  
0.06862006     7.47947e-05    7.47947e-05   
0.0688423      7.475938e-05   7.475938e-05  
0.06906469     7.472407e-05   7.472407e-05  
0.06928719     7.468877e-05   7.468877e-05  
0.06950985     7.465348e-05   7.465348e-05  
0.06973261     7.461821e-05   7.461821e-05  
0.06995554     7.458295e-05   7.458295e-05  
0.07017857     7.45477e-05    7.45477e-05   
0.07040171     7.451247e-05   7.451247e-05  
0.07062501     7.447725e-05   7.447725e-05  
0.07084842     7.444204e-05   7.444204e-05  
0.07107193     7.440685e-05   7.440685e-05  
0.07129555     7.437168e-05   7.437168e-05  
0.07151934     7.433652e-05   7.433652e-05  
0.07174323     7.430137e-05   7.430137e-05  
0.07196728     7.426623e-05   7.426623e-05  
0.07219145     7.423111e-05   7.423111e-05  
0.07241572     7.419601e-05   7.419601e-05  
0.07264015     7.416091e-05   7.416091e-05  
0.07286469     7.412583e-05   7.412583e-05  
0.07308934     7.409077e-05   7.409077e-05  
0.07331416     7.405571e-05   7.405571e-05  
0.07353908     7.402067e-05   7.402067e-05  
0.07376412     7.398565e-05   7.398565e-05  
0.07398931     7.395064e-05   7.395064e-05  
0.07421462     7.391564e-05   7.391564e-05  
0.07444009     7.388065e-05   7.388065e-05  
0.07466567     7.384568e-05   7.384568e-05  
0.07489136     7.381072e-05   7.381072e-05  
0.07511722     7.377577e-05   7.377577e-05  
0.07534324     7.374083e-05   7.374083e-05  
0.07556938     7.370591e-05   7.370591e-05  
0.07579567     7.367099e-05   7.367099e-05  
0.07602214     7.363608e-05   7.363608e-05  
0.07624872     7.360119e-05   7.360119e-05  
0.07647546     7.356631e-05   7.356631e-05  
0.07670237     7.353143e-05   7.353143e-05  
0.07692939     7.349657e-05   7.349657e-05  
0.07715658     7.346172e-05   7.346172e-05  
0.07738388     7.342688e-05   7.342688e-05  
0.07761135     7.339206e-05   7.339206e-05  
0.07783893     7.335725e-05   7.335725e-05  
0.07806668     7.332244e-05   7.332244e-05  
0.07829455     7.328766e-05   7.328766e-05  
0.07852258     7.325288e-05   7.325288e-05  
0.07875072     7.321812e-05   7.321812e-05  
0.07897904     7.318336e-05   7.318336e-05  
0.07920747     7.314862e-05   7.314862e-05  
0.07943606     7.311389e-05   7.311389e-05  
0.07966477     7.307918e-05   7.307918e-05  
0.07989366     7.304447e-05   7.304447e-05  
0.08012265     7.300978e-05   7.300978e-05  
0.08035176     7.297511e-05   7.297511e-05  
0.08058099     7.294045e-05   7.294045e-05  
0.08081038     7.29058e-05    7.29058e-05   
0.08103989     7.287117e-05   7.287117e-05  
0.08126952     7.283655e-05   7.283655e-05  
0.08149932     7.280194e-05   7.280194e-05  
0.08172923     7.276735e-05   7.276735e-05  
0.08195931     7.273276e-05   7.273276e-05  
0.08218952     7.269819e-05   7.269819e-05  
0.08241989     7.266363e-05   7.266363e-05  
0.08265038     7.262908e-05   7.262908e-05  
0.08288104     7.259454e-05   7.259454e-05  
0.08311182     7.256002e-05   7.256002e-05  
0.08334278     7.25255e-05    7.25255e-05   
0.08357385     7.2491e-05     7.2491e-05    
0.08380504     7.245652e-05   7.245652e-05  
0.0840364      7.242205e-05   7.242205e-05  
0.08426788     7.238759e-05   7.238759e-05  
0.08449947     7.235314e-05   7.235314e-05  
0.08473125     7.231871e-05   7.231871e-05  
0.08496314     7.228429e-05   7.228429e-05  
0.08519514     7.224988e-05   7.224988e-05  
0.08542733     7.221549e-05   7.221549e-05  
0.08565963     7.218111e-05   7.218111e-05  
0.08589205     7.214674e-05   7.214674e-05  
0.08612459     7.211239e-05   7.211239e-05  
0.0863573      7.207805e-05   7.207805e-05  
0.08659014     7.204373e-05   7.204373e-05  
0.08682309     7.200942e-05   7.200942e-05  
0.08705616     7.197513e-05   7.197513e-05  
0.08728941     7.194084e-05   7.194084e-05  
0.08752278     7.190657e-05   7.190657e-05  
0.08775627     7.187231e-05   7.187231e-05  
0.08798988     7.183808e-05   7.183808e-05  
0.08822367     7.180385e-05   7.180385e-05  
0.08845758     7.176963e-05   7.176963e-05  
0.08869161     7.173543e-05   7.173543e-05  
0.08892576     7.170125e-05   7.170125e-05  
0.08916009     7.166707e-05   7.166707e-05  
0.08939454     7.163291e-05   7.163291e-05  
0.08962911     7.159877e-05   7.159877e-05  
0.0898638      7.156464e-05   7.156464e-05  
0.09009861     7.153052e-05   7.153052e-05  
0.09033355     7.149642e-05   7.149642e-05  
0.09056861     7.146234e-05   7.146234e-05  
0.09080378     7.142828e-05   7.142828e-05  
0.09103908     7.139423e-05   7.139423e-05  
0.0912745      7.136019e-05   7.136019e-05  
0.09151011     7.132616e-05   7.132616e-05  
0.09174583     7.129215e-05   7.129215e-05  
0.09198168     7.125816e-05   7.125816e-05  
0.09221765     7.122418e-05   7.122418e-05  
0.09245375     7.119021e-05   7.119021e-05  
0.09268997     7.115626e-05   7.115626e-05  
0.09292631     7.112233e-05   7.112233e-05  
0.09316277     7.108841e-05   7.108841e-05  
0.09339936     7.105451e-05   7.105451e-05  
0.09363607     7.102062e-05   7.102062e-05  
0.0938729      7.098675e-05   7.098675e-05  
0.09410986     7.095289e-05   7.095289e-05  
0.09434694     7.091905e-05   7.091905e-05  
0.09458421     7.088522e-05   7.088522e-05  
0.0948216      7.08514e-05    7.08514e-05   
0.09505912     7.08176e-05    7.08176e-05   
0.09529676     7.078381e-05   7.078381e-05  
0.09553453     7.075004e-05   7.075004e-05  
0.09577242     7.071628e-05   7.071628e-05  
0.09601044     7.068254e-05   7.068254e-05  
0.09624858     7.064881e-05   7.064881e-05  
0.09648685     7.06151e-05    7.06151e-05   
0.0967253      7.05814e-05    7.05814e-05   
0.09696382     7.054772e-05   7.054772e-05  
0.09720247     7.051406e-05   7.051406e-05  
0.09744124     7.048041e-05   7.048041e-05  
0.09768014     7.044678e-05   7.044678e-05  
0.09791917     7.041316e-05   7.041316e-05  
0.09815832     7.037955e-05   7.037955e-05  
0.0983976      7.034597e-05   7.034597e-05  
0.098637       7.031239e-05   7.031239e-05  
0.09887654     7.027884e-05   7.027884e-05  
0.09911613     7.02453e-05    7.02453e-05   
0.09935586     7.021179e-05   7.021179e-05  
0.09959571     7.017828e-05   7.017828e-05  
0.09983569     7.01448e-05    7.01448e-05   
0.1000757      7.011133e-05   7.011133e-05  
0.1003159      7.007789e-05   7.007789e-05  
0.1005562      7.004445e-05   7.004445e-05  
0.1007966      7.001104e-05   7.001104e-05  
0.1010371      6.997765e-05   6.997765e-05  
0.1012777      6.994427e-05   6.994427e-05  
0.1015184      6.991091e-05   6.991091e-05  
0.1017593      6.987756e-05   6.987756e-05  
0.1020003      6.984423e-05   6.984423e-05  
0.1022414      6.981092e-05   6.981092e-05  
0.1024826      6.977762e-05   6.977762e-05  
0.1027239      6.974434e-05   6.974434e-05  
0.1029654      6.971108e-05   6.971108e-05  
0.103207       6.967783e-05   6.967783e-05  
0.1034487      6.964459e-05   6.964459e-05  
0.1036906      6.961137e-05   6.961137e-05  
0.1039325      6.957818e-05   6.957818e-05  
0.1041745      6.9545e-05     6.9545e-05    
0.1044167      6.951183e-05   6.951183e-05  
0.104659       6.947868e-05   6.947868e-05  
0.1049015      6.944554e-05   6.944554e-05  
0.105144       6.941242e-05   6.941242e-05  
0.1053867      6.937932e-05   6.937932e-05  
0.1056295      6.934624e-05   6.934624e-05  
0.1058724      6.931317e-05   6.931317e-05  
0.1061154      6.928012e-05   6.928012e-05  
0.1063586      6.924708e-05   6.924708e-05  
0.1066019      6.921405e-05   6.921405e-05  
0.1068452      6.918105e-05   6.918105e-05  
0.1070888      6.914806e-05   6.914806e-05  
0.1073325      6.911508e-05   6.911508e-05  
0.1075763      6.908211e-05   6.908211e-05  
0.1078203      6.904916e-05   6.904916e-05  
0.1080644      6.901622e-05   6.901622e-05  
0.1083086      6.89833e-05    6.89833e-05   
0.108553       6.89504e-05    6.89504e-05   
0.1087975      6.89175e-05    6.89175e-05   
0.1090421      6.888462e-05   6.888462e-05  
0.1092869      6.885176e-05   6.885176e-05  
0.1095318      6.881891e-05   6.881891e-05  
0.1097768      6.878608e-05   6.878608e-05  
0.110022       6.875326e-05   6.875326e-05  
0.1102673      6.872045e-05   6.872045e-05  
0.1105128      6.868766e-05   6.868766e-05  
0.1107584      6.865488e-05   6.865488e-05  
0.1110042      6.862211e-05   6.862211e-05  
0.1112501      6.858935e-05   6.858935e-05  
0.1114962      6.855661e-05   6.855661e-05  
0.1117423      6.852388e-05   6.852388e-05  
0.1119887      6.849117e-05   6.849117e-05  
0.1122351      6.845847e-05   6.845847e-05  
0.1124817      6.842578e-05   6.842578e-05  
0.1127285      6.83931e-05    6.83931e-05   
0.1129755      6.836044e-05   6.836044e-05  
0.1132226      6.832779e-05   6.832779e-05  
0.1134698      6.829515e-05   6.829515e-05  
0.1137172      6.826253e-05   6.826253e-05  
0.1139646      6.822992e-05   6.822992e-05  
0.1142123      6.819733e-05   6.819733e-05  
0.1144601      6.816475e-05   6.816475e-05  
0.114708       6.813218e-05   6.813218e-05  
0.114956       6.809963e-05   6.809963e-05  
0.1152042      6.806709e-05   6.806709e-05  
0.1154525      6.803457e-05   6.803457e-05  
0.115701       6.800206e-05   6.800206e-05  
0.1159496      6.796957e-05   6.796957e-05  
0.1161984      6.793709e-05   6.793709e-05  
0.1164472      6.790462e-05   6.790462e-05  
0.1166963      6.787217e-05   6.787217e-05  
0.1169455      6.783972e-05   6.783972e-05  
0.1171949      6.780729e-05   6.780729e-05  
0.1174444      6.777487e-05   6.777487e-05  
0.1176941      6.774246e-05   6.774246e-05  
0.1179439      6.771007e-05   6.771007e-05  
0.1181938      6.76777e-05    6.76777e-05   
0.1184439      6.764533e-05   6.764533e-05  
0.1186941      6.761298e-05   6.761298e-05  
0.1189445      6.758065e-05   6.758065e-05  
0.119195       6.754833e-05   6.754833e-05  
0.1194457      6.751602e-05   6.751602e-05  
0.1196965      6.748373e-05   6.748373e-05  
0.1199474      6.745145e-05   6.745145e-05  
0.1201985      6.741918e-05   6.741918e-05  
0.1204497      6.738693e-05   6.738693e-05  
0.120701       6.73547e-05    6.73547e-05   
0.1209525      6.732249e-05   6.732249e-05  
0.1212041      6.729029e-05   6.729029e-05  
0.1214558      6.72581e-05    6.72581e-05   
0.1217077      6.722593e-05   6.722593e-05  
0.1219597      6.719377e-05   6.719377e-05  
0.1222119      6.716162e-05   6.716162e-05  
0.1224642      6.712949e-05   6.712949e-05  
0.1227166      6.709737e-05   6.709737e-05  
0.1229692      6.706527e-05   6.706527e-05  
0.123222       6.703318e-05   6.703318e-05  
0.1234749      6.70011e-05    6.70011e-05   
0.1237279      6.696904e-05   6.696904e-05  
0.123981       6.6937e-05     6.6937e-05    
0.1242343      6.690497e-05   6.690497e-05  
0.1244877      6.687296e-05   6.687296e-05  
0.1247412      6.684096e-05   6.684096e-05  
0.1249949      6.680897e-05   6.680897e-05  
0.1252487      6.677701e-05   6.677701e-05  
0.1255026      6.674506e-05   6.674506e-05  
0.1257567      6.671312e-05   6.671312e-05  
0.1260109      6.66812e-05    6.66812e-05   
0.1262653      6.664929e-05   6.664929e-05  
0.1265197      6.66174e-05    6.66174e-05   
0.1267743      6.658553e-05   6.658553e-05  
0.127029       6.655367e-05   6.655367e-05  
0.1272839      6.652182e-05   6.652182e-05  
0.1275389      6.649e-05      6.649e-05     
0.127794       6.645819e-05   6.645819e-05  
0.1280492      6.642639e-05   6.642639e-05  
0.1283046      6.639461e-05   6.639461e-05  
0.1285602      6.636284e-05   6.636284e-05  
0.1288159      6.633108e-05   6.633108e-05  
0.1290717      6.629934e-05   6.629934e-05  
0.1293277      6.626761e-05   6.626761e-05  
0.1295839      6.623589e-05   6.623589e-05  
0.1298402      6.620418e-05   6.620418e-05  
0.1300967      6.617249e-05   6.617249e-05  
0.1303532      6.614083e-05   6.614083e-05  
0.1306099      6.610917e-05   6.610917e-05  
0.1308667      6.607753e-05   6.607753e-05  
0.1311236      6.604591e-05   6.604591e-05  
0.1313807      6.60143e-05    6.60143e-05   
0.1316378      6.598272e-05   6.598272e-05  
0.1318951      6.595115e-05   6.595115e-05  
0.1321526      6.591959e-05   6.591959e-05  
0.1324102      6.588805e-05   6.588805e-05  
0.1326678      6.585653e-05   6.585653e-05  
0.1329257      6.582502e-05   6.582502e-05  
0.1331836      6.579352e-05   6.579352e-05  
0.1334417      6.576205e-05   6.576205e-05  
0.1336999      6.573059e-05   6.573059e-05  
0.1339583      6.569914e-05   6.569914e-05  
0.1342167      6.566771e-05   6.566771e-05  
0.1344753      6.56363e-05    6.56363e-05   
0.1347341      6.56049e-05    6.56049e-05   
0.1349929      6.557352e-05   6.557352e-05  
0.1352519      6.554216e-05   6.554216e-05  
0.135511       6.551081e-05   6.551081e-05  
0.1357702      6.547948e-05   6.547948e-05  
0.1360296      6.544816e-05   6.544816e-05  
0.1362891      6.541686e-05   6.541686e-05  
0.1365488      6.538557e-05   6.538557e-05  
0.1368086      6.53543e-05    6.53543e-05   
0.1370685      6.532304e-05   6.532304e-05  
0.1373286      6.52918e-05    6.52918e-05   
0.1375887      6.526058e-05   6.526058e-05  
0.1378491      6.522937e-05   6.522937e-05  
0.1381095      6.519817e-05   6.519817e-05  