# Probe 0 (0 0 0)
# Probe 1 (0 0.011 0)
# Time         0              1             
0              0              0             
1.199999e-06   0              0             
2.639996e-06   6.39261e-316   3.922272e-148 
4.367991e-06   8.858261e-195  7.997434e-145 
6.441582e-06   5.062779e-189  7.18846e-142  
8.92989e-06    1.292072e-185  1.500201e-139 
1.191586e-05   1.091946e-182  2.551606e-137 
1.549901e-05   7.823091e-180  3.967442e-135 
1.97988e-05    5.175889e-177  5.807814e-133 
2.495853e-05   3.243249e-174  8.155735e-131 
3.115017e-05   1.964095e-171  1.134391e-128 
3.858013e-05   1.171316e-168  1.572835e-126 
4.749602e-05   6.972068e-166  2.162239e-124 
5.819505e-05   4.179317e-163  2.928094e-122 
7.103374e-05   2.535717e-160  3.8905e-120   
8.644002e-05   1.560434e-157  5.066807e-118 
0.0001049275   9.742617e-155  6.473684e-116 
0.0001271124   6.165992e-152  8.12758e-114  
0.0001536652   3.873515e-149  9.733136e-112 
0.000184725    2.013027e-146  8.632081e-110 
0.0002203792   6.781543e-144  5.505672e-108 
0.0002607336   1.463528e-141  2.607631e-106 
0.0003059114   2.136135e-139  9.569069e-105 
0.0003555141   2.091156e-137  2.556272e-103 
0.0004066103   9.924252e-136  3.515574e-102 
0.0004591955   2.342086e-134  3.540208e-101 
0.0005132598   3.766154e-133  2.89493e-100  
0.0005685871   4.644336e-132  1.989245e-99  
0.0006248139   4.585892e-131  1.165588e-98  
0.0006819145   3.798731e-130  6.028592e-98  
0.0007398796   2.733783e-129  2.817471e-97  
0.0007986942   1.752736e-128  1.208905e-96  
0.0008583444   1.019642e-127  4.819921e-96  
0.0009183566   5.330853e-127  1.769051e-95  
0.0009785531   2.525286e-126  6.015732e-95  
0.001038924    1.098418e-125  1.915922e-94  
0.00109946     4.433218e-125  5.762406e-94  
0.001160154    1.675074e-124  1.647637e-93  
0.001221003    5.970632e-124  4.503305e-93  
0.001282001    2.019744e-123  1.18177e-92   
0.001343141    6.518079e-123  2.988714e-92  
0.001404419    2.015386e-122  7.307634e-92  
0.001465834    5.993166e-122  1.732258e-91  
0.001527376    1.719194e-121  3.990102e-91  
0.001589045    4.770854e-121  8.949588e-91  
0.001650835    1.28377e-120   1.958215e-90  
0.001712748    3.357277e-120  4.18702e-90   
0.001774781    8.548324e-120  8.761185e-90  
0.001836929    2.122794e-119  1.79641e-89   
0.001899194    5.148968e-119  3.613824e-89  
0.001961575    1.221663e-118  7.140707e-89  
0.00202407     2.838546e-118  1.3872e-88    
0.002086674    6.466146e-118  2.651903e-88  
0.002149388    1.445586e-117  4.992974e-88  
0.002212213    3.174947e-117  9.266161e-88  
0.00227515     6.856405e-117  1.696224e-87  
0.002338193    1.457037e-116  3.064681e-87  
0.002401344    3.049123e-116  5.46851e-87   
0.002464603    6.288298e-116  9.64251e-87   
0.002527967    1.278758e-115  1.680938e-86  
0.002591436    2.565792e-115  2.898553e-86  
0.002655009    5.082393e-115  4.946231e-86  
0.002718685    9.943744e-115  8.356384e-86  
0.002782466    1.922623e-114  1.398312e-85  
0.002846349    3.675292e-114  2.318413e-85  
0.002910331    6.948599e-114  3.809941e-85  
0.002974415    1.299966e-113  6.208171e-85  
0.003051316    2.87224e-113   1.137879e-84  
0.003141075    7.570221e-113  2.355733e-84  
0.003243717    2.386415e-112  5.512391e-84  
0.003359269    8.960194e-112  1.452358e-83  
0.003487769    3.966257e-111  4.270451e-83  
0.003617726    1.620072e-110  1.189012e-82  
0.003748074    6.114774e-110  3.124466e-82  
0.003878816    2.153828e-109  7.821053e-82  
0.004009954    7.126839e-109  1.877697e-81  
0.00414149     2.229764e-108  4.346681e-81  
0.004273409    6.63392e-108   9.741111e-81  
0.004405714    1.887618e-107  2.120627e-80  
0.004538407    5.162088e-107  4.496662e-80  
0.00467149     1.362651e-106  9.308674e-80  
0.004804947    3.482592e-106  1.884817e-79  
0.004938782    8.642213e-106  3.739481e-79  
0.005072978    2.087315e-105  7.279796e-79  
0.005207537    4.917814e-105  1.392389e-78  
0.005342442    1.132129e-104  2.619435e-78  
0.005497615    3.075781e-104  5.512156e-78  
0.005673136    9.841667e-104  1.296665e-77  
0.005869062    3.680786e-103  3.394168e-77  
0.006073996    1.395422e-102  8.986205e-77  
0.006279735    4.925976e-102  2.265331e-76  
0.006486244    1.640423e-101  5.474773e-76  
0.006693485    5.183126e-101  1.275059e-75  
0.006901463    1.561083e-100  2.874105e-75  
0.007110141    4.500175e-100  6.290565e-75  
0.007319523    1.246899e-99   1.340753e-74  
0.00752957     3.332398e-99   2.788995e-74  
0.00774033     8.621949e-99   5.67519e-74   
0.007951719    2.164591e-98   1.131284e-73  
0.008163741    5.285826e-98   2.212816e-73  
0.008376399    1.258036e-97   4.254036e-73  
0.008589697    2.923822e-97   8.048796e-73  
0.008803593    6.644631e-97   1.500178e-72  
0.009018092    1.478958e-96   2.756955e-72  
0.009233195    3.229429e-96   4.998918e-72  
0.009448861    6.924778e-96   8.947479e-72  
0.009665091    1.459847e-95   1.581757e-71  
0.009881889    3.029789e-95   2.763231e-71  
0.01009921     6.193934e-95   4.771752e-71  
0.01031706     1.248098e-94   8.15044e-71   
0.01053544     2.480938e-94   1.377654e-70  
0.01075434     4.868393e-94   2.305489e-70  
0.01097374     9.435411e-94   3.820994e-70  
0.01119362     1.807124e-93   6.274399e-70  
0.01141399     3.422041e-93   1.021288e-69  
0.01163485     6.409813e-93   1.648464e-69  
0.01185621     1.188116e-92   2.639492e-69  
0.01207802     2.179918e-92   4.193105e-69  
0.01230027     3.960345e-92   6.610762e-69  
0.01252298     7.126247e-92   1.034654e-68  
0.01274614     1.270428e-91   1.608413e-68  
0.01296975     2.244994e-91   2.484388e-68  
0.01319382     3.933406e-91   3.813856e-68  
0.0134183      6.833845e-91   5.819234e-68  
0.01364319     1.177605e-90   8.827018e-68  
0.01386848     2.013314e-90   1.331301e-67  
0.0140942      3.415979e-90   1.996664e-67  
0.01432032     5.75346e-90    2.978055e-67  
0.01454686     9.624575e-90   4.417735e-67  
0.01477377     1.599144e-89   6.517978e-67  
0.01500104     2.639261e-89   9.566219e-67  
0.01522868     4.327747e-89   1.396862e-66  
0.01545669     7.052066e-89   2.029358e-66  
0.01568507     1.142199e-88   2.933725e-66  
0.01591377     1.838981e-88   4.22042e-66   
0.01614284     2.944166e-88   6.043416e-66  
0.01637228     4.687584e-88   8.614833e-66  
0.01660205     7.422181e-88   1.222574e-65  
0.01683219     1.169001e-87   1.727696e-65  
0.01706266     1.831635e-87   2.431434e-65  
0.01729345     2.854701e-87   3.408258e-65  
0.01752462     4.426963e-87   4.75936e-65   
0.01775611     6.830419e-87   6.621304e-65  
0.01798794     1.048635e-86   9.17832e-65   
0.01822009     1.602153e-86   1.267724e-64  
0.01845258     2.436497e-86   1.744803e-64  
0.01868539     3.688762e-86   2.393046e-64  
0.01891848     5.559892e-86   3.270465e-64  
0.01915191     8.346658e-86   4.454186e-64  
0.01938561     1.247892e-85   6.045131e-64  
0.01961965     1.858339e-85   8.17672e-64   
0.01985396     2.756442e-85   1.102228e-63  
0.02008856     4.07279e-85    1.480844e-63  
0.0203235      5.995796e-85   1.983118e-63  
0.02055871     8.794443e-85   2.647124e-63  
0.02079421     1.285265e-84   3.522081e-63  
0.02102999     1.871631e-84   4.672022e-63  
0.02126606     2.716009e-84   6.179829e-63  
0.02150241     3.927032e-84   8.151889e-63  
0.02173905     5.657143e-84   1.072456e-62  
0.02197598     8.120462e-84   1.407089e-62  
0.02221319     1.161597e-83   1.841099e-62  
0.02245063     1.656007e-83   2.40209e-62   
0.02268836     2.353275e-83   1.972251e-61  
0.02292638     3.333593e-83   2.588954e-61  
0.02316463     4.707323e-83   3.389475e-61  
0.02340312     6.627126e-83   4.425944e-61  
0.02364189     9.302886e-83   5.764975e-61  
0.02388091     1.302198e-82   7.49021e-61   
0.02412015     1.817571e-82   9.707709e-61  
0.02435969     2.53015e-82    1.255187e-60  
0.02459946     3.512374e-82   1.619016e-60  
0.02483947     4.863046e-82   2.083309e-60  
0.02507972     6.715546e-82   2.674404e-60  
0.0253202      9.249302e-82   3.4253e-60    
0.02556092     1.270593e-81   4.377281e-60  
0.02580188     1.740888e-81   5.581869e-60  
0.02604308     2.37875e-81    7.103243e-60  
0.02628452     3.241392e-81   9.021405e-60  
0.02652625     4.405361e-81   1.143624e-59  
0.02676823     5.971787e-81   1.446999e-59  
0.02701045     8.075117e-81   1.827445e-59  
0.02725291     1.089347e-80   2.30369e-59   
0.02749561     1.466196e-80   2.898826e-59  
0.02773855     1.968959e-80   3.641264e-59  
0.02798174     2.638378e-80   4.565953e-59  
0.02822517     3.527767e-80   5.715841e-59  
0.02846885     4.707297e-80   7.143514e-59  
0.02871277     6.26834e-80    8.913481e-59  
0.02895687     8.329469e-80   1.110405e-58  
0.02920122     1.104605e-79   1.381206e-58  
0.02944575     1.461816e-79   1.715428e-58  
0.02969053     1.930643e-79   2.127535e-58  
0.02993556     2.544579e-79   2.635081e-58  
0.03018077     3.34679e-79    3.25924e-58   
0.03042624     4.393158e-79   4.026148e-58  
0.03067188     5.754913e-79   4.967121e-58  
0.03091772     7.523463e-79   6.120436e-58  
0.0311638      9.816596e-79   7.533095e-58  
0.03141008     1.278333e-78   9.261315e-58  
0.03165654     1.661417e-78   1.137356e-57  
0.03190325     2.155351e-78   1.395347e-57  
0.03215015     2.79096e-78    1.710063e-57  
0.03239724     3.607636e-78   2.093593e-57  
0.03264452     4.655217e-78   2.560558e-57  
0.03289199     5.997641e-78   3.128532e-57  
0.03313958     7.714264e-78   3.818436e-57  
0.03338737     9.907393e-78   4.655848e-57  
0.03363534     1.270492e-77   5.671475e-57  
0.03388351     1.626892e-77   6.902396e-57  
0.03413187     2.08022e-77    8.393175e-57  
0.03438042     2.655442e-77   1.019747e-56  
0.03462916     3.384167e-77   1.237965e-56  
0.0348781      4.305893e-77   1.501694e-56  
0.03512723     5.470099e-77   1.820186e-56  
0.03537655     6.938835e-77   2.20451e-56   
0.03562606     8.789699e-77   2.667927e-56  
0.03587571     1.11186e-76    3.226122e-56  
0.03612554     1.40463e-76    3.898188e-56  
0.03637558     1.772237e-76   4.706806e-56  
0.0366258      2.233155e-76   5.679102e-56  
0.03687616     2.810251e-76   6.847067e-56  
0.03712671     3.532332e-76   8.249458e-56  
0.03737746     4.435085e-76   9.932094e-56  
0.03762834     5.562297e-76   1.194868e-55  
0.03787942     6.968479e-76   1.436414e-55  
0.03813062     8.72001e-76    1.725447e-55  
0.03838203     1.089962e-75   2.071181e-55  
0.03863363     1.360865e-75   2.484464e-55  
0.03888536     1.697012e-75   2.978036e-55  
0.03913729     2.113762e-75   3.56728e-55   
0.03938935     2.629742e-75   4.270112e-55  
0.03964161     3.268139e-75   5.108117e-55  
0.03989401     4.056921e-75   6.106349e-55  
0.0401466      5.030857e-75   7.294949e-55  
0.04039933     6.232013e-75   8.708797e-55  
0.04065225     7.712587e-75   1.038984e-54  
0.04090531     9.535524e-75   1.238659e-54  
0.04115857     1.177917e-74   1.475724e-54  
0.04141196     1.453753e-74   1.756886e-54  
0.04166549     1.792539e-74   2.090109e-54  
0.04191922     2.20843e-74    2.484883e-54  
0.04217309     2.718427e-74   2.952127e-54  
0.04242715     3.343409e-74   3.504932e-54  
0.04268135     4.108278e-74   4.158341e-54  
0.04293569     5.04355e-74    4.930119e-54  
0.04319022     6.186512e-74   5.841368e-54  
0.0434449      7.581714e-74   6.916249e-54  
0.04369978     9.283913e-74   8.183673e-54  
0.04395479     1.135815e-73   9.676887e-54  
0.04420994     1.388374e-73   1.143503e-53  
0.04446529     1.69575e-73    1.350448e-53  
0.04472078     2.069485e-73   1.593799e-53  
0.04497641     2.523588e-73   1.879765e-53  
0.04523224     3.075177e-73   2.215671e-53  
0.04548821     3.744505e-73   2.609869e-53  
0.04574432     4.556127e-73   3.072146e-53  
0.04600057     5.53973e-73    3.613852e-53  
0.04625695     6.730796e-73   4.248165e-53  
0.04651347     8.171892e-73   4.990502e-53  
0.04677013     9.914527e-73   5.858724e-53  
0.04702692     1.202029e-72   6.873504e-53  
0.04728386     1.456248e-72   8.058939e-53  
0.04754093     1.762911e-72   9.44298e-53   
0.04779822     2.132607e-72   1.105852e-52  
0.04805564     2.577818e-72   1.294269e-52  
0.0483132      3.113622e-72   1.513888e-52  
0.0485709      3.758104e-72   1.769717e-52  
0.04882874     4.53283e-72    2.067558e-52  
0.04908672     5.463518e-72   2.414135e-52  
0.04934491     6.581214e-72   2.817354e-52  
0.04960324     7.922264e-72   3.286096e-52  
0.04986171     9.530308e-72   3.830712e-52  
0.05012032     1.145766e-71   4.463109e-52  
0.05037907     1.376671e-71   5.196996e-52  
0.05063797     1.653163e-71   6.048162e-52  
0.05089693     1.983865e-71   7.034537e-52  
0.05115603     2.379172e-71   8.177431e-52  
0.05141528     2.851279e-71   9.501126e-52  
0.05167467     3.414644e-71   1.103358e-51  
0.05193427     4.086585e-71   1.280762e-51  
0.05219402     4.887265e-71   1.486003e-51  
0.0524539      5.840701e-71   1.723366e-51  
0.05271393     6.975453e-71   1.997756e-51  
0.0529741      8.32549e-71    2.314794e-51  
0.05323442     9.930596e-71   2.680961e-51  
0.05349488     1.183803e-70   3.1037e-51    
0.05375548     1.410319e-70   3.591584e-51  
0.05401622     1.679163e-70   4.154469e-51  
0.05427711     1.998065e-70   4.803668e-51  
0.05453807     2.376027e-70   5.551911e-51  
0.05479918     2.823856e-70   6.414281e-51  
0.05506043     3.354147e-70   7.407785e-51  
0.05532182     3.981721e-70   8.551943e-51  
0.05558336     4.723886e-70   9.869219e-51  
0.05584505     5.601008e-70   1.138533e-50  
0.05610687     6.637018e-70   1.312972e-50  
0.05636885     7.859895e-70   1.513622e-50  
0.05663097     9.302443e-70   1.744368e-50  
0.05689323     1.100317e-69   2.009667e-50  
0.05715565     1.300713e-69   2.314627e-50  
0.0574182      1.536722e-69   2.665085e-50  
0.05768083     1.814436e-69   3.067594e-50  
0.05794361     2.141165e-69   3.529891e-50  
0.05820653     2.525417e-69   4.060691e-50  
0.05846961     2.977113e-69   4.669949e-50  
0.05873282     3.507904e-69   5.369033e-50  
0.05899619     4.131263e-69   6.170964e-50  
0.05925963     4.862567e-69   7.090404e-50  
0.05952321     5.720178e-69   8.144599e-50  
0.05978695     6.725189e-69   9.353071e-50  
0.06005083     7.902316e-69   1.073806e-49  
0.06031486     9.280231e-69   1.232497e-49  
0.06057904     1.089234e-68   1.41428e-49   
0.06084337     1.277742e-68   1.622466e-49  
0.06110785     1.498093e-68   1.860813e-49  
0.0613724      1.755495e-68   2.133503e-49  
0.0616371      2.056085e-68   2.445517e-49  
0.06190195     2.406912e-68   2.802462e-49  
0.06216695     2.81619e-68    3.21072e-49   
0.0624321      3.293453e-68   3.677557e-49  
0.06269739     3.849787e-68   4.211213e-49  
0.06296277     4.497837e-68   4.820841e-49  
0.06322829     5.252645e-68   5.517222e-49  
0.06349397     6.131456e-68   6.312429e-49  
0.0637598      7.154052e-68   7.220233e-49  
0.0640257      8.342921e-68   8.255901e-49  
0.06429175     9.724903e-68   9.437423e-49  
0.06455795     1.133028e-67   1.078502e-48  
0.06482431     1.319411e-67   1.232167e-48  
0.06509074     1.535622e-67   1.407283e-48  
0.06535733     1.786391e-67   1.606844e-48  
0.06562406     2.077126e-67   1.834185e-48  
0.06589095     2.414079e-67   2.093082e-48  
0.06615799     2.804521e-67   2.387796e-48  
0.06642519     3.256772e-67   2.723159e-48  
0.06669246     3.780337e-67   3.104494e-48  
0.06695988     4.386613e-67   3.53804e-48   
0.06722738     5.088196e-67   4.030609e-48  
0.06749503     5.899837e-67   4.590233e-48  
0.06776284     6.838378e-67   5.225811e-48  
0.0680308      7.923351e-67   5.947334e-48  
0.06829884     9.176798e-67   6.765827e-48  
0.06856703     1.062464e-66   7.694179e-48  
0.06883538     1.229634e-66   1.284266e-47  
0.06910388     1.422567e-66   1.464921e-47  
0.06937246     1.645045e-66   1.67039e-47   
0.06964119     1.901595e-66   1.904069e-47  
0.06991008     2.197346e-66   2.169741e-47  
0.07017905     2.538054e-66   2.471589e-47  
0.07044818     2.930547e-66   2.81452e-47   
0.07071745     3.382586e-66   3.203972e-47  
0.07098689     3.903101e-66   3.646069e-47  
0.0712564      4.502116e-66   4.147529e-47  
0.07152607     5.191497e-66   4.71624e-47   
0.0717959      5.984581e-66   5.360995e-47  
0.07206588     6.896604e-66   6.091712e-47  
0.07233595     7.944606e-66   6.919287e-47  
0.07260617     9.148772e-66   7.856475e-47  
0.07287654     1.053186e-65   8.917374e-47  
0.07314708     1.211992e-65   1.011785e-46  
0.07341769     1.394203e-65   1.14753e-46   
0.07368846     1.603273e-65   1.301003e-46  
0.07395932     1.843031e-65   1.474388e-46  
0.07423033     2.117987e-65   1.670247e-46  
0.07450149     2.43319e-65    1.891421e-46  
0.07477274     2.794302e-65   2.141003e-46  
0.07504415     3.208052e-65   2.422595e-46  
0.07531572     3.68202e-65    2.740159e-46  
0.07558744     4.224788e-65   3.098149e-46  
0.07585925     4.845906e-65   3.501424e-46  
0.07613121     5.556724e-65   3.955664e-46  
0.07640334     6.370093e-65   4.46709e-46   
0.07667555     7.300173e-65   5.042471e-46  
0.07694791     8.363813e-65   5.689675e-46  
0.07722044     9.579903e-65   6.417368e-46  
0.07749305     1.096907e-64   7.234995e-46  
0.07776582     1.255563e-64   8.153637e-46  
0.07803875     1.436728e-64   9.185331e-46  
0.07831184     1.643555e-64   1.034344e-45  
0.07858502     1.879499e-64   1.16425e-45   
0.07885835     2.148653e-64   1.309953e-45  
0.07913177     2.455544e-64   1.473243e-45  
0.07940535     2.805495e-64   1.656215e-45  
0.07967909     3.204433e-64   1.861155e-45  
0.07995292     3.658919e-64   2.090545e-45  
0.0802269      4.17661e-64    2.347303e-45  
0.08050105     4.766168e-64   2.634581e-45  
0.08077528     5.437347e-64   2.955739e-45  
0.08104968     6.201495e-64   3.314721e-45  
0.08132424     7.07113e-64    3.715818e-45  
0.08159888     8.060042e-64   4.163639e-45  
0.08187369     9.184417e-64   4.663583e-45  
0.08214866     1.04624e-63    5.221491e-45  
0.08242371     1.191419e-63   5.843622e-45  
0.08269893     1.356338e-63   6.537333e-45  
0.08297431     1.543622e-63   7.310584e-45  
0.08324978     1.756177e-63   8.171872e-45  
0.08352532     1.997366e-63   9.130781e-45  
0.08380096     2.270978e-63   1.019786e-44  
0.08407667     2.581262e-63   1.138476e-44  
0.08435255     2.933136e-63   1.270484e-44  
0.08462851     3.331922e-63   1.417201e-44  
0.08490465     3.783886e-63   1.580254e-44  
0.08518086     4.295781e-63   1.761333e-44  
0.08545724     4.875544e-63   1.962417e-44  
0.0857337      5.531696e-63   2.18555e-44   
0.08601033     6.274301e-63   2.433126e-44  
0.08628705     7.114177e-63   2.707628e-44  
0.08656393     8.064028e-63   3.011964e-44  
0.0868409      9.13754e-63    3.349142e-44  
0.08711795     1.035039e-62   3.722574e-44  
0.08739517     1.172068e-62   4.136151e-44  
0.08767247     1.326785e-62   4.593862e-44  
0.08794994     1.501459e-62   5.10039e-44   
0.08822758     1.698591e-62   5.660744e-44  
0.08850531     1.920893e-62   6.280253e-44  
0.0887832      2.171625e-62   6.965093e-44  
0.08906118     2.454323e-62   7.721553e-44  
0.08933933     2.773067e-62   8.557064e-44  
0.08961757     3.132154e-62   9.479274e-44  
0.08989597     3.536654e-62   1.049716e-43  
0.09017455     3.992138e-62   1.162031e-43  
0.09045321     4.504724e-62   1.285876e-43  
0.09073204     5.081599e-62   1.422425e-43  
0.09101104     5.730704e-62   1.572923e-43  
0.09129013     6.460572e-62   1.738691e-43  
0.09156939     7.281182e-62   1.921281e-43  
0.09184873     8.203211e-62   2.122262e-43  
0.09212825     9.239204e-62   2.343472e-43  
0.09240785     1.04024e-61    2.586789e-43  
0.09268763     1.170834e-61   2.854434e-43  
0.09296758     1.317405e-61   3.148765e-43  
0.09324761     1.481829e-61   3.472225e-43  
0.09352782     1.66628e-61    3.827693e-43  
0.0938082      1.87313e-61    4.218202e-43  
0.09408867     2.104971e-61   4.64691e-43   
0.09436931     2.364847e-61   5.117519e-43  
0.09465004     2.655931e-61   5.633777e-43  
0.09493094     2.982022e-61   6.200083e-43  
0.09521202     3.347206e-61   6.821098e-43  
0.09549318     3.755883e-61   7.501678e-43  
0.09577452     4.213179e-61   8.247573e-43  
0.09605604     4.724777e-61   9.064744e-43  
0.09633764     5.296747e-61   9.959396e-43  
0.09661942     5.936113e-61   1.09389e-42   
0.09690137     6.650566e-61   1.2011e-42    
0.09718341     7.448372e-61   1.318372e-42  
0.09746563     8.339332e-61   1.446655e-42  
0.09774794     9.333665e-61   1.586897e-42  
0.09803042     1.044329e-60   1.740223e-42  
0.09831299     1.16809e-60    1.907737e-42  
0.09859574     1.30614e-60    2.090742e-42  
0.09887858     1.460038e-60   2.29053e-42   
0.0991616      1.63161e-60    2.508636e-42  
0.0994447      1.82275e-60    2.746583e-42  
0.09972798     2.035696e-60   3.006176e-42  
0.1000114      2.272886e-60   3.289301e-42  
0.100295       2.536908e-60   3.597902e-42  
0.1005787      2.830792e-60   3.934263e-42  
0.1008626      3.157784e-60   4.300771e-42  
0.1011466      3.521337e-60   4.6999e-42    
0.1014308      3.925507e-60   5.134591e-42  
0.1017152      4.37472e-60    5.607883e-42  
0.1019996      4.873728e-60   6.122851e-42  
0.1022842      5.428057e-60   6.683161e-42  
0.102569       6.043653e-60   7.292612e-42  
0.1028539      6.726875e-60   7.95506e-42   
0.103139       7.485128e-60   8.675133e-42  
0.1034243      8.326306e-60   9.457586e-42  
0.1037096      9.259011e-60   1.03072e-41   
0.1039952      1.029326e-59   1.122971e-41  
0.1042809      1.143988e-59   1.223107e-41  
0.1045668      1.271083e-59   1.331765e-41  
0.1048529      1.411915e-59   1.449634e-41  
0.105139       1.567858e-59   1.577412e-41  
0.1054254      1.740521e-59   1.715943e-41  
0.1057119      1.931632e-59   1.8661e-41    
0.1059987      2.143121e-59   2.028817e-41  
0.1062856      2.377053e-59   2.205099e-41  
0.1065726      2.635649e-59   2.395952e-41  
0.1068597      2.921541e-59   2.602564e-41  
0.107147       3.237411e-59   2.826073e-41  
0.1074345      3.586406e-59   3.067855e-41  
0.107722       3.971767e-59   3.329227e-41  
0.1080098      4.397291e-59   3.611782e-41  
0.1082977      4.867027e-59   3.917152e-41  
0.1085858      5.385464e-59   4.247071e-41  
0.108874       5.957401e-59   4.603248e-41  
0.1091624      6.588394e-59   4.987777e-41  
0.109451       7.284229e-59   5.402805e-41  
0.1097397      8.051373e-59   5.850621e-41  
0.1100286      8.896729e-59   6.333509e-41  
0.1103177      9.82829e-59    6.854253e-41  
0.1106069      1.085453e-58   7.415662e-41  
0.1108962      1.198436e-58   8.020503e-41  
0.1111857      1.322841e-58   8.672126e-41  
0.1114754      1.45979e-58    9.373918e-41  
0.1117652      1.610446e-58   1.012923e-40  
0.1120552      1.776195e-58   1.094212e-40  
0.1123454      1.958476e-58   1.181668e-40  
0.1126358      2.15888e-58    1.275732e-40  
0.1129262      2.379081e-58   1.376832e-40  
0.1132169      2.621045e-58   1.485496e-40  
0.1135076      2.886751e-58   1.602215e-40  
0.1137986      3.178518e-58   1.727595e-40  
0.1140897      3.498828e-58   1.862242e-40  
0.1143809      3.850269e-58   2.006744e-40  
0.1146723      4.235864e-58   2.161836e-40  
0.114964       4.658857e-58   2.32824e-40   
0.1152557      5.122611e-58   2.506667e-40  
0.1155476      5.63111e-58    2.697996e-40  
0.1158396      6.188278e-58   2.903036e-40  
0.1161317      6.798842e-58   3.122767e-40  
0.1164241      7.467711e-58   3.358168e-40  
0.1167166      8.200016e-58   3.241461e-40  
0.1170093      9.001874e-58   3.498278e-40  
0.117302       9.879348e-58   3.774264e-40  
0.117595       1.083986e-57   4.070852e-40  
0.1178881      1.18906e-57    4.389371e-40  
0.1181812      1.303971e-57   4.731334e-40  
0.1184746      1.429646e-57   5.09849e-40   
0.1187681      1.567053e-57   5.492584e-40  
0.1190618      1.717171e-57   5.915333e-40  
0.1193556      1.881176e-57   6.368868e-40  
0.1196497      2.060307e-57   6.855289e-40  
0.1199438      2.255825e-57   7.376648e-40  
0.1202381      2.469239e-57   7.935482e-40  
0.1205327      2.702114e-57   8.534309e-40  
0.1208273      2.956049e-57   9.175582e-40  
0.1211221      3.232984e-57   9.862361e-40  
0.1214171      3.534996e-57   1.059765e-39  
0.1217123      3.864178e-57   1.138436e-39  
0.1220076      4.223027e-57   1.222613e-39  
0.122303       4.613982e-57   1.312626e-39  
0.1225986      5.039956e-57   1.408889e-39  
0.1228943      5.503786e-57   1.511771e-39  
0.1231903      6.008839e-57   1.62174e-39   
0.1234863      6.558414e-57   1.739212e-39  
0.1237825      7.156582e-57   1.864709e-39  
0.1240788      7.807128e-57   1.998701e-39  
0.1243753      8.514668e-57   2.141773e-39  
0.1246721      9.283919e-57   2.294504e-39  
0.1249689      1.011965e-56   2.457445e-39  
0.1252659      1.102761e-56   2.631295e-39  
0.125563       1.201344e-56   2.816668e-39  
0.1258604      1.308389e-56   3.014348e-39  
0.1261578      1.424541e-56   3.225023e-39  
0.1264554      1.550582e-56   3.449575e-39  
0.1267531      1.687281e-56   3.688775e-39  
0.1270511      1.835547e-56   3.943609e-39  
0.1273491      1.996252e-56   4.214938e-39  
0.1276474      2.170456e-56   4.503869e-39  
0.1279457      2.359181e-56   4.811371e-39  
0.1282442      2.563671e-56   5.138682e-39  
0.1285429      2.785117e-56   5.486874e-39  
0.1288417      3.024933e-56   5.857327e-39  
0.1291407      3.284474e-56   6.251238e-39  
0.1294399      3.565375e-56   6.670149e-39  
0.1297392      3.869326e-56   7.115548e-39  
0.1300387      4.198028e-56   7.588833e-39  
0.1303384      4.55352e-56    8.091819e-39  
0.1306382      4.937699e-56   8.626068e-39  
0.1309381      5.352906e-56   9.193609e-39  
0.1312382      5.801369e-56   9.796177e-39  
0.1315385      6.285746e-56   1.043604e-38  
0.1318389      6.808482e-56   1.111516e-38  
0.1321395      7.372827e-56   1.183609e-38  
0.1324404      7.982142e-56   1.260127e-38  
0.1327413      8.63977e-56    1.341298e-38  
0.1330423      9.3495e-56     1.427389e-38  
0.1333435      1.011571e-55   1.518711e-38  
0.1336449      1.094248e-55   1.615533e-38  
0.1339464      1.183494e-55   1.718203e-38  
0.1342481      1.279787e-55   1.827015e-38  
0.13455        1.383708e-55   1.942357e-38  
0.1348519      1.495827e-55   2.064552e-38  
0.1351541      1.616822e-55   2.194029e-38  
0.1354564      1.747306e-55   2.331155e-38  
0.1357589      1.888045e-55   2.476413e-38  
0.1360616      2.039837e-55   2.630261e-38  
0.1363644      2.203474e-55   2.793129e-38  
0.1366675      2.379918e-55   2.96558e-38   
0.1369706      2.570087e-55   3.148085e-38  
0.1372739      2.77509e-55    3.341269e-38  
0.1375774      2.995968e-55   3.545653e-38  
0.1378811      3.233983e-55   3.761938e-38  
0.1381849      3.490351e-55   3.990696e-38  
0.1384887      3.766475e-55   4.232608e-38  
0.1387928      4.063933e-55   4.488493e-38  
0.139097       4.384185e-55   4.75902e-38   
0.1394015      4.729058e-55   5.045088e-38  
0.139706       5.100289e-55   5.347428e-38  
0.1400107      5.499933e-55   5.66704e-38   
0.1403156      5.929922e-55   6.004748e-38  
0.1406207      6.392608e-55   6.361663e-38  
0.1409258      6.890111e-55   6.738705e-38  
0.1412312      7.425097e-55   7.137104e-38  
0.1415367      8.000026e-55   7.557862e-38  
0.1418425      8.617916e-55   8.00235e-38   
0.1421483      9.281614e-55   8.471682e-38  
0.1424543      9.99468e-55    8.967369e-38  
0.1427605      1.07603e-54    9.490648e-38  
0.1430669      1.158244e-54   1.004319e-37  
0.1433733      1.246479e-54   1.062634e-37  
0.1436801      1.341195e-54   1.124194e-37  
0.1439869      1.442802e-54   1.189149e-37  
0.1442939      1.551801e-54   1.257704e-37  
0.144601       1.66866e-54    1.330026e-37  
0.1449084      1.79396e-54    1.406343e-37  
0.1452159      1.92824e-54    1.486839e-37  
0.1455236      2.072164e-54   1.571766e-37  
0.1458314      2.226332e-54   1.661325e-37  
0.1461393      2.391443e-54   1.755759e-37  
0.1464475      2.568279e-54   1.855362e-37  
0.1467557      2.757551e-54   1.960366e-37  
0.1470642      2.960167e-54   2.071094e-37  
0.1473728      3.176928e-54   2.187803e-37  
0.1476816      3.408827e-54   2.310851e-37  
0.1479905      3.656735e-54   2.440518e-37  
0.1482997      3.92174e-54    2.577198e-37  
0.1486089      4.204805e-54   2.721208e-37  
0.1489184      4.50719e-54    2.872984e-37  
0.149228       4.829987e-54   3.032873e-37  
0.1495378      5.174574e-54   1.708983e-38  
0.1498478      5.542235e-54   1.808e-38     
0.1501579      5.934587e-54   1.912545e-38  
0.1504682      6.352983e-54   2.02288e-38   
0.1507786      6.799069e-54   2.139311e-38  
0.1510892      7.274757e-54   2.262208e-38  
0.1513999      7.781718e-54   2.39187e-38   
0.1517109      8.322054e-54   2.528706e-38  
0.1520219      8.897593e-54   2.673037e-38  
0.1523331      9.510447e-54   2.825255e-38  
0.1526445      1.016311e-53   2.985837e-38  
0.1529561      1.085768e-53   3.155168e-38  
0.1532678      1.159679e-53   3.333788e-38  
0.1535797      1.23827e-53    3.522129e-38  
0.1538918      1.321833e-53   3.720771e-38  
0.154204       1.410623e-53   3.930173e-38  
0.1545164      1.504936e-53   4.150903e-38  
0.1548289      1.605135e-53   4.383648e-38  
0.1551416      1.711522e-53   4.628946e-38  
0.1554545      1.824497e-53   4.88755e-38   
0.1557675      1.944394e-53   5.160047e-38  
0.1560808      2.071646e-53   5.447269e-38  
0.1563942      2.206636e-53   5.749864e-38  
0.1567077      2.349786e-53   6.068653e-38  
0.1570214      2.501605e-53   6.404587e-38  
0.1573352      2.662494e-53   6.758409e-38  
0.1576492      2.832914e-53   7.13106e-38   
0.1579634      3.013417e-53   7.523688e-38  
0.1582777      3.204459e-53   7.937177e-38  
0.1585922      3.406646e-53   8.372777e-38  
0.1589069      3.620462e-53   8.831462e-38  
0.1592217      3.846488e-53   9.3144e-38    
0.1595367      4.085426e-53   9.82303e-38   
0.1598518      4.337818e-53   1.035849e-37  
0.1601672      4.60443e-53    1.092237e-37  
0.1604827      4.885881e-53   1.15159e-37   
0.1607983      5.182882e-53   1.214056e-37  
0.1611141      5.496455e-53   1.279819e-37  
0.1614301      5.827496e-53   1.349024e-37  
0.1617463      6.17724e-53    1.421874e-37  