# Probe 0 (0 0 0)
# Probe 1 (0 0.011 0)
# Time         0              1             
0              0              0             
1.199999e-06   7.315071e-10   7.315071e-10  
2.639996e-06   1.60931e-09    1.60931e-09   
4.367991e-06   2.662664e-09   2.662664e-09  
6.441582e-06   3.926679e-09   3.926679e-09  
8.92989e-06    5.44348e-09    5.44348e-09   
1.191586e-05   7.263618e-09   7.263618e-09  
1.549901e-05   9.447754e-09   9.447754e-09  
1.97988e-05    1.206867e-08   1.206867e-08  
2.495853e-05   1.52137e-08    1.52137e-08   
3.115017e-05   1.898762e-08   1.898762e-08  
3.858013e-05   2.351619e-08   2.351619e-08  
4.749602e-05   2.895025e-08   2.895025e-08  
5.819505e-05   3.547082e-08   3.547082e-08  
7.103374e-05   4.329503e-08   4.329503e-08  
8.644002e-05   5.268343e-08   5.268343e-08  
0.0001049275   6.394867e-08   6.394867e-08  
0.0001271124   7.746573e-08   7.746573e-08  
0.0001536652   9.364248e-08   9.364248e-08  
0.000184725    1.125627e-07   1.125627e-07  
0.0002203792   1.342787e-07   1.342787e-07  
0.0002607336   1.588535e-07   1.588535e-07  
0.0003059114   1.863609e-07   1.863609e-07  
0.0003555141   2.165566e-07   2.165566e-07  
0.0004066103   2.476553e-07   2.476553e-07  
0.0004591955   2.796538e-07   2.796538e-07  
0.0005132598   3.125455e-07   3.125455e-07  
0.0005685871   3.461982e-07   3.461982e-07  
0.0006248139   3.803907e-07   3.803907e-07  
0.0006819145   4.151068e-07   4.151068e-07  
0.0007398796   4.503407e-07   4.503407e-07  
0.0007986942   4.860827e-07   4.860827e-07  
0.0008583444   5.223242e-07   5.223242e-07  
0.0009183566   5.587771e-07   5.587771e-07  
0.0009785531   5.953335e-07   5.953335e-07  
0.001038924    6.319874e-07   6.319874e-07  
0.00109946     6.687327e-07   6.687327e-07  
0.001160154    7.055652e-07   7.055652e-07  
0.001221003    7.424834e-07   7.424834e-07  
0.001282001    7.79483e-07    7.79483e-07   
0.001343141    8.165599e-07   8.165599e-07  
0.001404419    8.537122e-07   8.537122e-07  
0.001465834    8.90938e-07    8.90938e-07   
0.001527376    9.282328e-07   9.282328e-07  
0.001589045    9.655948e-07   9.655948e-07  
0.001650835    1.003022e-06   1.003022e-06  
0.001712748    1.040514e-06   1.040514e-06  
0.001774781    1.07807e-06    1.07807e-06   
0.001836929    1.115687e-06   1.115687e-06  
0.001899194    1.153365e-06   1.153365e-06  
0.001961575    1.191104e-06   1.191104e-06  
0.00202407     1.228903e-06   1.228903e-06  
0.002086674    1.26676e-06    1.26676e-06   
0.002149388    1.304674e-06   1.304674e-06  
0.002212213    1.342645e-06   1.342645e-06  
0.00227515     1.380674e-06   1.380674e-06  
0.002338193    1.418759e-06   1.418759e-06  
0.002401344    1.4569e-06     1.4569e-06    
0.002464603    1.495097e-06   1.495097e-06  
0.002527967    1.533347e-06   1.533347e-06  
0.002591436    1.571652e-06   1.571652e-06  
0.002655009    1.61001e-06    1.61001e-06   
0.002718685    1.648421e-06   1.648421e-06  
0.002782466    1.686886e-06   1.686886e-06  
0.002846349    1.725403e-06   1.725403e-06  
0.002910331    1.76397e-06    1.76397e-06   
0.002974415    1.802589e-06   1.802589e-06  
0.003051316    1.848918e-06   1.848918e-06  
0.003141075    1.902975e-06   1.902975e-06  
0.003243717    1.964767e-06   1.964767e-06  
0.003359269    2.0343e-06     2.0343e-06    
0.003487769    2.111585e-06   2.111585e-06  
0.003617726    2.189709e-06   2.189709e-06  
0.003748074    2.268028e-06   2.268028e-06  
0.003878816    2.346545e-06   2.346545e-06  
0.004009954    2.42526e-06    2.42526e-06   
0.00414149     2.504174e-06   2.504174e-06  
0.004273409    2.583279e-06   2.583279e-06  
0.004405714    2.662574e-06   2.662574e-06  
0.004538407    2.742062e-06   2.742062e-06  
0.00467149     2.821744e-06   2.821744e-06  
0.004804947    2.901609e-06   2.901609e-06  
0.004938782    2.981658e-06   2.981658e-06  
0.005072978    3.061883e-06   3.061883e-06  
0.005207537    3.142284e-06   3.142284e-06  
0.005342442    3.22285e-06    3.22285e-06   
0.005497615    3.315466e-06   3.315466e-06  
0.005673136    3.420157e-06   3.420157e-06  
0.005869062    3.536931e-06   3.536931e-06  
0.006073996    3.65898e-06    3.65898e-06   
0.006279735    3.781413e-06   3.781413e-06  
0.006486244    3.904207e-06   3.904207e-06  
0.006693485    4.027341e-06   4.027341e-06  
0.006901463    4.150816e-06   4.150816e-06  
0.007110141    4.274609e-06   4.274609e-06  
0.007319523    4.398721e-06   4.398721e-06  
0.00752957     4.523129e-06   4.523129e-06  
0.00774033     4.64786e-06    4.64786e-06   
0.007951719    4.772864e-06   4.772864e-06  
0.008163741    4.898142e-06   4.898142e-06  
0.008376399    5.023696e-06   5.023696e-06  
0.008589697    5.149527e-06   5.149527e-06  
0.008803593    5.27561e-06    5.27561e-06   
0.009018092    5.401947e-06   5.401947e-06  
0.009233195    5.528537e-06   5.528537e-06  
0.009448861    5.655357e-06   5.655357e-06  
0.009665091    5.782405e-06   5.782405e-06  
0.009881889    5.909685e-06   5.909685e-06  
0.01009921     6.037168e-06   6.037168e-06  
0.01031706     6.164856e-06   6.164856e-06  
0.01053544     6.29275e-06    6.29275e-06   
0.01075434     6.420852e-06   6.420852e-06  
0.01097374     6.549132e-06   6.549132e-06  
0.01119362     6.677593e-06   6.677593e-06  
0.01141399     6.806235e-06   6.806235e-06  
0.01163485     6.935059e-06   6.935059e-06  
0.01185621     7.064065e-06   7.064065e-06  
0.01207802     7.193227e-06   7.193227e-06  
0.01230027     7.322543e-06   7.322543e-06  
0.01252298     7.452015e-06   7.452015e-06  
0.01274614     7.581644e-06   7.581644e-06  
0.01296975     7.71143e-06    7.71143e-06   
0.01319382     7.841374e-06   7.841374e-06  
0.0134183      7.971447e-06   7.971447e-06  
0.01364319     8.10165e-06    8.10165e-06   
0.01386848     8.231982e-06   8.231982e-06  
0.0140942      8.362445e-06   8.362445e-06  
0.01432032     8.493039e-06   8.493039e-06  
0.01454686     8.623765e-06   8.623765e-06  
0.01477377     8.754593e-06   8.754593e-06  
0.01500104     8.885523e-06   8.885523e-06  
0.01522868     9.016556e-06   9.016556e-06  
0.01545669     9.147692e-06   9.147692e-06  
0.01568507     9.278931e-06   9.278931e-06  
0.01591377     9.410245e-06   9.410245e-06  
0.01614284     9.541662e-06   9.541662e-06  
0.01637228     9.673184e-06   9.673184e-06  
0.01660205     9.804781e-06   9.804781e-06  
0.01683219     9.936483e-06   9.936483e-06  
0.01706266     1.006826e-05   1.006826e-05  
0.01729345     1.020011e-05   1.020011e-05  
0.01752462     1.033207e-05   1.033207e-05  
0.01775611     1.046411e-05   1.046411e-05  
0.01798794     1.059622e-05   1.059622e-05  
0.01822009     1.072841e-05   1.072841e-05  
0.01845258     1.086067e-05   1.086067e-05  
0.01868539     1.099301e-05   1.099301e-05  
0.01891848     1.11254e-05    1.11254e-05   
0.01915191     1.125787e-05   1.125787e-05  
0.01938561     1.139038e-05   1.139038e-05  
0.01961965     1.152297e-05   1.152297e-05  
0.01985396     1.165561e-05   1.165561e-05  
0.02008856     1.178829e-05   1.178829e-05  
0.0203235      1.192106e-05   1.192106e-05  
0.02055871     1.205387e-05   1.205387e-05  
0.02079421     1.218673e-05   1.218673e-05  
0.02102999     1.231964e-05   1.231964e-05  
0.02126606     1.245259e-05   1.245259e-05  
0.02150241     1.258559e-05   1.258559e-05  
0.02173905     1.271865e-05   1.271865e-05  
0.02197598     1.285175e-05   1.285175e-05  
0.02221319     1.29849e-05    1.29849e-05   
0.02245063     1.311807e-05   1.311807e-05  
0.02268836     1.325129e-05   1.325129e-05  
0.02292638     1.338455e-05   1.338455e-05  
0.02316463     1.351784e-05   1.351784e-05  
0.02340312     1.365114e-05   1.365114e-05  
0.02364189     1.378449e-05   1.378449e-05  
0.02388091     1.391786e-05   1.391786e-05  
0.02412015     1.405125e-05   1.405125e-05  
0.02435969     1.418469e-05   1.418469e-05  
0.02459946     1.431815e-05   1.431815e-05  
0.02483947     1.445163e-05   1.445163e-05  
0.02507972     1.458513e-05   1.458513e-05  
0.0253202      1.471864e-05   1.471864e-05  
0.02556092     1.485217e-05   1.485217e-05  
0.02580188     1.498573e-05   1.498573e-05  
0.02604308     1.51193e-05    1.51193e-05   
0.02628452     1.525289e-05   1.525289e-05  
0.02652625     1.538654e-05   1.538654e-05  
0.02676823     1.552021e-05   1.552021e-05  
0.02701045     1.565389e-05   1.565389e-05  
0.02725291     1.57876e-05    1.57876e-05   
0.02749561     1.592132e-05   1.592132e-05  
0.02773855     1.605507e-05   1.605507e-05  
0.02798174     1.618884e-05   1.618884e-05  
0.02822517     1.632263e-05   1.632263e-05  
0.02846885     1.645644e-05   1.645644e-05  
0.02871277     1.659027e-05   1.659027e-05  
0.02895687     1.672409e-05   1.672409e-05  
0.02920122     1.685793e-05   1.685793e-05  
0.02944575     1.699176e-05   1.699176e-05  
0.02969053     1.712561e-05   1.712561e-05  
0.02993556     1.725948e-05   1.725948e-05  
0.03018077     1.739334e-05   1.739334e-05  
0.03042624     1.752723e-05   1.752723e-05  
0.03067188     1.76611e-05    1.76611e-05   
0.03091772     1.779496e-05   1.779496e-05  
0.0311638      1.792884e-05   1.792884e-05  
0.03141008     1.806272e-05   1.806272e-05  
0.03165654     1.819658e-05   1.819658e-05  
0.03190325     1.833047e-05   1.833047e-05  
0.03215015     1.846434e-05   1.846434e-05  
0.03239724     1.859821e-05   1.859821e-05  
0.03264452     1.873206e-05   1.873206e-05  
0.03289199     1.886591e-05   1.886591e-05  
0.03313958     1.899971e-05   1.899971e-05  
0.03338737     1.91335e-05    1.91335e-05   
0.03363534     1.926728e-05   1.926728e-05  
0.03388351     1.940105e-05   1.940105e-05  
0.03413187     1.953481e-05   1.953481e-05  
0.03438042     1.966856e-05   1.966856e-05  
0.03462916     1.980231e-05   1.980231e-05  
0.0348781      1.993604e-05   1.993604e-05  
0.03512723     2.006977e-05   2.006977e-05  
0.03537655     2.020348e-05   2.020348e-05  
0.03562606     2.033719e-05   2.033719e-05  
0.03587571     2.047085e-05   2.047085e-05  
0.03612554     2.060451e-05   2.060451e-05  
0.03637558     2.073816e-05   2.073816e-05  
0.0366258      2.08718e-05    2.08718e-05   
0.03687616     2.100539e-05   2.100539e-05  
0.03712671     2.113898e-05   2.113898e-05  
0.03737746     2.127256e-05   2.127256e-05  
0.03762834     2.14061e-05    2.14061e-05   
0.03787942     2.153963e-05   2.153963e-05  
0.03813062     2.167312e-05   2.167312e-05  
0.03838203     2.18066e-05    2.18066e-05   
0.03863363     2.194008e-05   2.194008e-05  
0.03888536     2.207351e-05   2.207351e-05  
0.03913729     2.220693e-05   2.220693e-05  
0.03938935     2.234032e-05   2.234032e-05  
0.03964161     2.24737e-05    2.24737e-05   
0.03989401     2.260703e-05   2.260703e-05  
0.0401466      2.274036e-05   2.274036e-05  
0.04039933     2.287365e-05   2.287365e-05  
0.04065225     2.300693e-05   2.300693e-05  
0.04090531     2.314017e-05   2.314017e-05  
0.04115857     2.327341e-05   2.327341e-05  
0.04141196     2.34066e-05    2.34066e-05   
0.04166549     2.353976e-05   2.353976e-05  
0.04191922     2.36729e-05    2.36729e-05   
0.04217309     2.380601e-05   2.380601e-05  
0.04242715     2.393912e-05   2.393912e-05  
0.04268135     2.407218e-05   2.407218e-05  
0.04293569     2.42052e-05    2.42052e-05   
0.04319022     2.433822e-05   2.433822e-05  
0.0434449      2.44712e-05    2.44712e-05   
0.04369978     2.460417e-05   2.460417e-05  
0.04395479     2.47371e-05    2.47371e-05   
0.04420994     2.487e-05      2.487e-05     
0.04446529     2.500289e-05   2.500289e-05  
0.04472078     2.513574e-05   2.513574e-05  
0.04497641     2.526855e-05   2.526855e-05  
0.04523224     2.540136e-05   2.540136e-05  
0.04548821     2.553413e-05   2.553413e-05  
0.04574432     2.566686e-05   2.566686e-05  
0.04600057     2.579955e-05   2.579955e-05  
0.04625695     2.59322e-05    2.59322e-05   
0.04651347     2.606481e-05   2.606481e-05  
0.04677013     2.619739e-05   2.619739e-05  
0.04702692     2.632992e-05   2.632992e-05  
0.04728386     2.646242e-05   2.646242e-05  
0.04754093     2.659488e-05   2.659488e-05  
0.04779822     2.672734e-05   2.672734e-05  
0.04805564     2.685976e-05   2.685976e-05  
0.0483132      2.699215e-05   2.699215e-05  
0.0485709      2.712449e-05   2.712449e-05  
0.04882874     2.72568e-05    2.72568e-05   
0.04908672     2.738907e-05   2.738907e-05  
0.04934491     2.752134e-05   2.752134e-05  
0.04960324     2.765357e-05   2.765357e-05  
0.04986171     2.778576e-05   2.778576e-05  
0.05012032     2.791792e-05   2.791792e-05  
0.05037907     2.805004e-05   2.805004e-05  
0.05063797     2.818212e-05   2.818212e-05  
0.05089693     2.831414e-05   2.831414e-05  
0.05115603     2.844611e-05   2.844611e-05  
0.05141528     2.857805e-05   2.857805e-05  
0.05167467     2.870995e-05   2.870995e-05  
0.05193427     2.884185e-05   2.884185e-05  
0.05219402     2.897372e-05   2.897372e-05  
0.0524539      2.910555e-05   2.910555e-05  
0.05271393     2.923734e-05   2.923734e-05  
0.0529741      2.93691e-05    2.93691e-05   
0.05323442     2.950083e-05   2.950083e-05  
0.05349488     2.963252e-05   2.963252e-05  
0.05375548     2.976417e-05   2.976417e-05  
0.05401622     2.989579e-05   2.989579e-05  
0.05427711     3.002737e-05   3.002737e-05  
0.05453807     3.015888e-05   3.015888e-05  
0.05479918     3.029036e-05   3.029036e-05  
0.05506043     3.04218e-05    3.04218e-05   
0.05532182     3.05532e-05    3.05532e-05   
0.05558336     3.068458e-05   3.068458e-05  
0.05584505     3.081591e-05   3.081591e-05  
0.05610687     3.094722e-05   3.094722e-05  
0.05636885     3.107849e-05   3.107849e-05  
0.05663097     3.120972e-05   3.120972e-05  
0.05689323     3.134093e-05   3.134093e-05  
0.05715565     3.147209e-05   3.147209e-05  
0.0574182      3.160323e-05   3.160323e-05  
0.05768083     3.173429e-05   3.173429e-05  
0.05794361     3.186533e-05   3.186533e-05  
0.05820653     3.199632e-05   3.199632e-05  
0.05846961     3.212729e-05   3.212729e-05  
0.05873282     3.225822e-05   3.225822e-05  
0.05899619     3.238912e-05   3.238912e-05  
0.05925963     3.251995e-05   3.251995e-05  
0.05952321     3.265074e-05   3.265074e-05  
0.05978695     3.278151e-05   3.278151e-05  
0.06005083     3.291224e-05   3.291224e-05  
0.06031486     3.304294e-05   3.304294e-05  
0.06057904     3.317361e-05   3.317361e-05  
0.06084337     3.330424e-05   3.330424e-05  
0.06110785     3.343484e-05   3.343484e-05  
0.0613724      3.356538e-05   3.356538e-05  
0.0616371      3.369588e-05   3.369588e-05  
0.06190195     3.382635e-05   3.382635e-05  
0.06216695     3.395679e-05   3.395679e-05  
0.0624321      3.40872e-05    3.40872e-05   
0.06269739     3.421758e-05   3.421758e-05  
0.06296277     3.434789e-05   3.434789e-05  
0.06322829     3.447817e-05   3.447817e-05  
0.06349397     3.460841e-05   3.460841e-05  
0.0637598      3.473863e-05   3.473863e-05  
0.0640257      3.486878e-05   3.486878e-05  
0.06429175     3.49989e-05    3.49989e-05   
0.06455795     3.512898e-05   3.512898e-05  
0.06482431     3.525904e-05   3.525904e-05  
0.06509074     3.538903e-05   3.538903e-05  
0.06535733     3.551899e-05   3.551899e-05  
0.06562406     3.564892e-05   3.564892e-05  
0.06589095     3.577882e-05   3.577882e-05  
0.06615799     3.590869e-05   3.590869e-05  
0.06642519     3.603853e-05   3.603853e-05  
0.06669246     3.616831e-05   3.616831e-05  
0.06695988     3.629805e-05   3.629805e-05  
0.06722738     3.642773e-05   3.642773e-05  
0.06749503     3.655738e-05   3.655738e-05  
0.06776284     3.6687e-05     3.6687e-05    
0.0680308      3.68166e-05    3.68166e-05   
0.06829884     3.694612e-05   3.694612e-05  
0.06856703     3.707562e-05   3.707562e-05  
0.06883538     3.720509e-05   3.720509e-05  
0.06910388     3.733453e-05   3.733453e-05  
0.06937246     3.74639e-05    3.74639e-05   
0.06964119     3.759325e-05   3.759325e-05  
0.06991008     3.772257e-05   3.772257e-05  
0.07017905     3.785182e-05   3.785182e-05  
0.07044818     3.798105e-05   3.798105e-05  
0.07071745     3.811025e-05   3.811025e-05  
0.07098689     3.823942e-05   3.823942e-05  
0.0712564      3.836852e-05   3.836852e-05  
0.07152607     3.84976e-05    3.84976e-05   
0.0717959      3.862665e-05   3.862665e-05  
0.07206588     3.875567e-05   3.875567e-05  
0.07233595     3.888463e-05   3.888463e-05  
0.07260617     3.901357e-05   3.901357e-05  
0.07287654     3.914247e-05   3.914247e-05  
0.07314708     3.927135e-05   3.927135e-05  
0.07341769     3.940017e-05   3.940017e-05  
0.07368846     3.952896e-05   3.952896e-05  
0.07395932     3.965768e-05   3.965768e-05  
0.07423033     3.978638e-05   3.978638e-05  
0.07450149     3.991505e-05   3.991505e-05  
0.07477274     4.004366e-05   4.004366e-05  
0.07504415     4.017225e-05   4.017225e-05  
0.07531572     4.03008e-05    4.03008e-05   
0.07558744     4.042934e-05   4.042934e-05  
0.07585925     4.055781e-05   4.055781e-05  
0.07613121     4.068625e-05   4.068625e-05  
0.07640334     4.081467e-05   4.081467e-05  
0.07667555     4.094303e-05   4.094303e-05  
0.07694791     4.107136e-05   4.107136e-05  
0.07722044     4.119966e-05   4.119966e-05  
0.07749305     4.132791e-05   4.132791e-05  
0.07776582     4.145613e-05   4.145613e-05  
0.07803875     4.158432e-05   4.158432e-05  
0.07831184     4.171249e-05   4.171249e-05  
0.07858502     4.18406e-05    4.18406e-05   
0.07885835     4.196868e-05   4.196868e-05  
0.07913177     4.20967e-05    4.20967e-05   
0.07940535     4.22247e-05    4.22247e-05   
0.07967909     4.235268e-05   4.235268e-05  
0.07995292     4.248059e-05   4.248059e-05  
0.0802269      4.260848e-05   4.260848e-05  
0.08050105     4.273634e-05   4.273634e-05  
0.08077528     4.286415e-05   4.286415e-05  
0.08104968     4.299193e-05   4.299193e-05  
0.08132424     4.311969e-05   4.311969e-05  
0.08159888     4.324739e-05   4.324739e-05  
0.08187369     4.337506e-05   4.337506e-05  
0.08214866     4.350271e-05   4.350271e-05  
0.08242371     4.36303e-05    4.36303e-05   
0.08269893     4.375787e-05   4.375787e-05  
0.08297431     4.388542e-05   4.388542e-05  
0.08324978     4.40129e-05    4.40129e-05   
0.08352532     4.414033e-05   4.414033e-05  
0.08380096     4.426769e-05   4.426769e-05  
0.08407667     4.4395e-05     4.4395e-05    
0.08435255     4.452228e-05   4.452228e-05  
0.08462851     4.46495e-05    4.46495e-05   
0.08490465     4.477671e-05   4.477671e-05  
0.08518086     4.490385e-05   4.490385e-05  
0.08545724     4.503097e-05   4.503097e-05  
0.0857337      4.515803e-05   4.515803e-05  
0.08601033     4.528507e-05   4.528507e-05  
0.08628705     4.541205e-05   4.541205e-05  
0.08656393     4.553901e-05   4.553901e-05  
0.0868409      4.566591e-05   4.566591e-05  
0.08711795     4.579275e-05   4.579275e-05  
0.08739517     4.591957e-05   4.591957e-05  
0.08767247     4.604634e-05   4.604634e-05  
0.08794994     4.617308e-05   4.617308e-05  
0.08822758     4.62998e-05    4.62998e-05   
0.08850531     4.642647e-05   4.642647e-05  
0.0887832      4.655311e-05   4.655311e-05  
0.08906118     4.66797e-05    4.66797e-05   
0.08933933     4.680626e-05   4.680626e-05  
0.08961757     4.693277e-05   4.693277e-05  
0.08989597     4.705926e-05   4.705926e-05  
0.09017455     4.718573e-05   4.718573e-05  
0.09045321     4.731214e-05   4.731214e-05  
0.09073204     4.743853e-05   4.743853e-05  
0.09101104     4.756491e-05   4.756491e-05  
0.09129013     4.769122e-05   4.769122e-05  
0.09156939     4.781752e-05   4.781752e-05  
0.09184873     4.794376e-05   4.794376e-05  
0.09212825     4.806998e-05   4.806998e-05  
0.09240785     4.819615e-05   4.819615e-05  
0.09268763     4.832229e-05   4.832229e-05  
0.09296758     4.844842e-05   4.844842e-05  
0.09324761     4.857449e-05   4.857449e-05  
0.09352782     4.870055e-05   4.870055e-05  
0.0938082      4.882658e-05   4.882658e-05  
0.09408867     4.895256e-05   4.895256e-05  
0.09436931     4.907852e-05   4.907852e-05  
0.09465004     4.920443e-05   4.920443e-05  
0.09493094     4.933032e-05   4.933032e-05  
0.09521202     4.945619e-05   4.945619e-05  
0.09549318     4.9582e-05     4.9582e-05    
0.09577452     4.97078e-05    4.97078e-05   
0.09605604     4.983358e-05   4.983358e-05  
0.09633764     4.995931e-05   4.995931e-05  
0.09661942     5.008501e-05   5.008501e-05  
0.09690137     5.021071e-05   5.021071e-05  
0.09718341     5.033634e-05   5.033634e-05  
0.09746563     5.046196e-05   5.046196e-05  
0.09774794     5.058753e-05   5.058753e-05  
0.09803042     5.071308e-05   5.071308e-05  
0.09831299     5.083857e-05   5.083857e-05  
0.09859574     5.096405e-05   5.096405e-05  
0.09887858     5.108947e-05   5.108947e-05  
0.0991616      5.121488e-05   5.121488e-05  
0.0994447      5.134023e-05   5.134023e-05  
0.09972798     5.146557e-05   5.146557e-05  
0.1000114      5.159089e-05   5.159089e-05  
0.100295       5.171616e-05   5.171616e-05  
0.1005787      5.184141e-05   5.184141e-05  
0.1008626      5.196665e-05   5.196665e-05  
0.1011466      5.209183e-05   5.209183e-05  
0.1014308      5.2217e-05     5.2217e-05    
0.1017152      5.234216e-05   5.234216e-05  
0.1019996      5.246726e-05   5.246726e-05  
0.1022842      5.259234e-05   5.259234e-05  
0.102569       5.271741e-05   5.271741e-05  
0.1028539      5.284243e-05   5.284243e-05  
0.103139       5.296744e-05   5.296744e-05  
0.1034243      5.309243e-05   5.309243e-05  
0.1037096      5.321736e-05   5.321736e-05  
0.1039952      5.334229e-05   5.334229e-05  
0.1042809      5.34672e-05    5.34672e-05   
0.1045668      5.359209e-05   5.359209e-05  
0.1048529      5.371698e-05   5.371698e-05  
0.105139       5.384181e-05   5.384181e-05  
0.1054254      5.396662e-05   5.396662e-05  
0.1057119      5.409143e-05   5.409143e-05  
0.1059987      5.421622e-05   5.421622e-05  
0.1062856      5.4341e-05     5.4341e-05    
0.1065726      5.446572e-05   5.446572e-05  
0.1068597      5.459044e-05   5.459044e-05  
0.107147       5.47151e-05    5.47151e-05   
0.1074345      5.483975e-05   5.483975e-05  
0.107722       5.496434e-05   5.496434e-05  
0.1080098      5.508893e-05   5.508893e-05  
0.1082977      5.52135e-05    5.52135e-05   
0.1085858      5.533806e-05   5.533806e-05  
0.108874       5.546257e-05   5.546257e-05  
0.1091624      5.558707e-05   5.558707e-05  
0.109451       5.571155e-05   5.571155e-05  
0.1097397      5.583603e-05   5.583603e-05  
0.1100286      5.596045e-05   5.596045e-05  
0.1103177      5.608486e-05   5.608486e-05  
0.1106069      5.620926e-05   5.620926e-05  
0.1108962      5.633361e-05   5.633361e-05  
0.1111857      5.645795e-05   5.645795e-05  
0.1114754      5.658228e-05   5.658228e-05  
0.1117652      5.670656e-05   5.670656e-05  
0.1120552      5.683082e-05   5.683082e-05  
0.1123454      5.695508e-05   5.695508e-05  
0.1126358      5.707933e-05   5.707933e-05  
0.1129262      5.720352e-05   5.720352e-05  
0.1132169      5.732771e-05   5.732771e-05  
0.1135076      5.745184e-05   5.745184e-05  
0.1137986      5.757597e-05   5.757597e-05  
0.1140897      5.770008e-05   5.770008e-05  
0.1143809      5.782415e-05   5.782415e-05  
0.1146723      5.79482e-05    5.79482e-05   
0.114964       5.807225e-05   5.807225e-05  
0.1152557      5.819625e-05   5.819625e-05  
0.1155476      5.832023e-05   5.832023e-05  
0.1158396      5.844417e-05   5.844417e-05  
0.1161317      5.85681e-05    5.85681e-05   
0.1164241      5.869202e-05   5.869202e-05  
0.1167166      5.881589e-05   5.881589e-05  
0.1170093      5.893975e-05   5.893975e-05  
0.117302       5.906356e-05   5.906356e-05  
0.117595       5.918737e-05   5.918737e-05  
0.1178881      5.931112e-05   5.931112e-05  
0.1181812      5.943483e-05   5.943483e-05  
0.1184746      5.955853e-05   5.955853e-05  
0.1187681      5.968222e-05   5.968222e-05  
0.1190618      5.980586e-05   5.980586e-05  
0.1193556      5.992949e-05   5.992949e-05  
0.1196497      6.005312e-05   6.005312e-05  
0.1199438      6.017669e-05   6.017669e-05  
0.1202381      6.030026e-05   6.030026e-05  
0.1205327      6.042383e-05   6.042383e-05  
0.1208273      6.054734e-05   6.054734e-05  
0.1211221      6.067085e-05   6.067085e-05  
0.1214171      6.079435e-05   6.079435e-05  
0.1217123      6.09178e-05    6.09178e-05   
0.1220076      6.104125e-05   6.104125e-05  
0.122303       6.116465e-05   6.116465e-05  
0.1225986      6.128804e-05   6.128804e-05  
0.1228943      6.141138e-05   6.141138e-05  
0.1231903      6.153472e-05   6.153472e-05  
0.1234863      6.165801e-05   6.165801e-05  
0.1237825      6.17813e-05    6.17813e-05   
0.1240788      6.190453e-05   6.190453e-05  
0.1243753      6.202777e-05   6.202777e-05  
0.1246721      6.215099e-05   6.215099e-05  
0.1249689      6.227417e-05   6.227417e-05  
0.1252659      6.239734e-05   6.239734e-05  
0.125563       6.252047e-05   6.252047e-05  
0.1258604      6.264359e-05   6.264359e-05  
0.1261578      6.276667e-05   6.276667e-05  
0.1264554      6.288974e-05   6.288974e-05  
0.1267531      6.301276e-05   6.301276e-05  
0.1270511      6.313578e-05   6.313578e-05  
0.1273491      6.325875e-05   6.325875e-05  
0.1276474      6.338172e-05   6.338172e-05  
0.1279457      6.350464e-05   6.350464e-05  
0.1282442      6.362756e-05   6.362756e-05  
0.1285429      6.375043e-05   6.375043e-05  
0.1288417      6.387329e-05   6.387329e-05  
0.1291407      6.399611e-05   6.399611e-05  
0.1294399      6.411893e-05   6.411893e-05  
0.1297392      6.424174e-05   6.424174e-05  
0.1300387      6.436451e-05   6.436451e-05  
0.1303384      6.448728e-05   6.448728e-05  
0.1306382      6.461e-05      6.461e-05     
0.1309381      6.473271e-05   6.473271e-05  
0.1312382      6.485538e-05   6.485538e-05  
0.1315385      6.497805e-05   6.497805e-05  
0.1318389      6.510067e-05   6.510067e-05  
0.1321395      6.522329e-05   6.522329e-05  
0.1324404      6.534591e-05   6.534591e-05  
0.1327413      6.546848e-05   6.546848e-05  
0.1330423      6.559101e-05   6.559101e-05  
0.1333435      6.571353e-05   6.571353e-05  
0.1336449      6.583601e-05   6.583601e-05  
0.1339464      6.595849e-05   6.595849e-05  
0.1342481      6.608092e-05   6.608092e-05  
0.13455        6.620336e-05   6.620336e-05  
0.1348519      6.632574e-05   6.632574e-05  
0.1351541      6.644813e-05   6.644813e-05  
0.1354564      6.657047e-05   6.657047e-05  
0.1357589      6.669281e-05   6.669281e-05  
0.1360616      6.681515e-05   6.681515e-05  
0.1363644      6.693745e-05   6.693745e-05  
0.1366675      6.705974e-05   6.705974e-05  
0.1369706      6.718199e-05   6.718199e-05  
0.1372739      6.730424e-05   6.730424e-05  
0.1375774      6.742645e-05   6.742645e-05  
0.1378811      6.754865e-05   6.754865e-05  
0.1381849      6.767081e-05   6.767081e-05  
0.1384887      6.779293e-05   6.779293e-05  
0.1387928      6.791505e-05   6.791505e-05  
0.139097       6.803713e-05   6.803713e-05  
0.1394015      6.81592e-05    6.81592e-05   
0.139706       6.828123e-05   6.828123e-05  
0.1400107      6.840327e-05   6.840327e-05  
0.1403156      6.852525e-05   6.852525e-05  
0.1406207      6.864724e-05   6.864724e-05  
0.1409258      6.876919e-05   6.876919e-05  
0.1412312      6.889114e-05   6.889114e-05  
0.1415367      6.901305e-05   6.901305e-05  
0.1418425      6.913495e-05   6.913495e-05  
0.1421483      6.925682e-05   6.925682e-05  
0.1424543      6.937868e-05   6.937868e-05  
0.1427605      6.95005e-05    6.95005e-05   
0.1430669      6.962233e-05   6.962233e-05  
0.1433733      6.974411e-05   6.974411e-05  
0.1436801      6.98659e-05    6.98659e-05   
0.1439869      6.998764e-05   6.998764e-05  
0.1442939      7.010938e-05   7.010938e-05  
0.144601       7.023108e-05   7.023108e-05  
0.1449084      7.035279e-05   7.035279e-05  
0.1452159      7.047445e-05   7.047445e-05  
0.1455236      7.059612e-05   7.059612e-05  
0.1458314      7.071774e-05   7.071774e-05  
0.1461393      7.083932e-05   7.083932e-05  
0.1464475      7.096091e-05   7.096091e-05  
0.1467557      7.108245e-05   7.108245e-05  
0.1470642      7.1204e-05     7.1204e-05    
0.1473728      7.13255e-05    7.13255e-05   
0.1476816      7.144701e-05   7.144701e-05  
0.1479905      7.156848e-05   7.156848e-05  
0.1482997      7.168995e-05   7.168995e-05  
0.1486089      7.181138e-05   7.181138e-05  
0.1489184      7.193282e-05   7.193282e-05  
0.149228       7.205421e-05   7.205421e-05  
0.1495378      7.217561e-05   7.217561e-05  
0.1498478      7.229697e-05   7.229697e-05  
0.1501579      7.241833e-05   7.241833e-05  
0.1504682      7.253965e-05   7.253965e-05  
0.1507786      7.266093e-05   7.266093e-05  
0.1510892      7.278222e-05   7.278222e-05  
0.1513999      7.290346e-05   7.290346e-05  
0.1517109      7.302471e-05   7.302471e-05  
0.1520219      7.314592e-05   7.314592e-05  
0.1523331      7.326709e-05   7.326709e-05  
0.1526445      7.338827e-05   7.338827e-05  
0.1529561      7.35094e-05    7.35094e-05   
0.1532678      7.363054e-05   7.363054e-05  
0.1535797      7.375165e-05   7.375165e-05  
0.1538918      7.387275e-05   7.387275e-05  
0.154204       7.399382e-05   7.399382e-05  
0.1545164      7.411485e-05   7.411485e-05  
0.1548289      7.423589e-05   7.423589e-05  
0.1551416      7.435688e-05   7.435688e-05  
0.1554545      7.447788e-05   7.447788e-05  
0.1557675      7.459885e-05   7.459885e-05  
0.1560808      7.471982e-05   7.471982e-05  
0.1563942      7.484075e-05   7.484075e-05  
0.1567077      7.496164e-05   7.496164e-05  
0.1570214      7.508254e-05   7.508254e-05  
0.1573352      7.52034e-05    7.52034e-05   
0.1576492      7.532422e-05   7.532422e-05  
0.1579634      7.544505e-05   7.544505e-05  
0.1582777      7.556584e-05   7.556584e-05  
0.1585922      7.568664e-05   7.568664e-05  
0.1589069      7.58074e-05    7.58074e-05   
0.1592217      7.592812e-05   7.592812e-05  
0.1595367      7.604885e-05   7.604885e-05  
0.1598518      7.616954e-05   7.616954e-05  
0.1601672      7.629024e-05   7.629024e-05  
0.1604827      7.64109e-05    7.64109e-05   
0.1607983      7.653152e-05   7.653152e-05  
0.1611141      7.665216e-05   7.665216e-05  
0.1614301      7.677275e-05   7.677275e-05  
0.1617463      7.689336e-05   7.689336e-05  