# Probe 0 (0 0 0)
# Probe 1 (0 0.011 0)
# Time         0              1             
0              0              0             
1.199999e-06   0.0001094944   0.0001094944  
2.639996e-06   0.0001094938   0.0001094938  
4.367991e-06   0.0001094931   0.0001094931  
6.441582e-06   0.0001094922   0.0001094922  
8.92989e-06    0.0001094911   0.0001094911  
1.191586e-05   0.0001094899   0.0001094899  
1.549901e-05   0.0001094883   0.0001094883  
1.97988e-05    0.0001094865   0.0001094865  
2.495853e-05   0.0001094843   0.0001094843  
3.115017e-05   0.0001094817   0.0001094817  
3.858013e-05   0.0001094785   0.0001094785  
4.749602e-05   0.0001094747   0.0001094747  
5.819505e-05   0.0001094702   0.0001094702  
7.103374e-05   0.0001094647   0.0001094647  
8.644002e-05   0.0001094582   0.0001094582  
0.0001049275   0.0001094503   0.0001094503  
0.0001271124   0.0001094409   0.0001094409  
0.0001536652   0.0001094296   0.0001094296  
0.000184725    0.0001094165   0.0001094165  
0.0002203792   0.0001094013   0.0001094013  
0.0002607336   0.0001093842   0.0001093842  
0.0003059114   0.000109365    0.000109365   
0.0003555141   0.000109344    0.000109344   
0.0004066103   0.0001093224   0.0001093224  
0.0004591955   0.0001093001   0.0001093001  
0.0005132598   0.0001092772   0.0001092772  
0.0005685871   0.0001092538   0.0001092538  
0.0006248139   0.00010923     0.00010923    
0.0006819145   0.0001092058   0.0001092058  
0.0007398796   0.0001091813   0.0001091813  
0.0007986942   0.0001091565   0.0001091565  
0.0008583444   0.0001091313   0.0001091313  
0.0009183566   0.000109106    0.000109106   
0.0009785531   0.0001090806   0.0001090806  
0.001038924    0.0001090551   0.0001090551  
0.00109946     0.0001090296   0.0001090296  
0.001160154    0.000109004    0.000109004   
0.001221003    0.0001089784   0.0001089784  
0.001282001    0.0001089527   0.0001089527  
0.001343141    0.000108927    0.000108927   
0.001404419    0.0001089012   0.0001089012  
0.001465834    0.0001088754   0.0001088754  
0.001527376    0.0001088496   0.0001088496  
0.001589045    0.0001088237   0.0001088237  
0.001650835    0.0001087977   0.0001087977  
0.001712748    0.0001087718   0.0001087718  
0.001774781    0.0001087458   0.0001087458  
0.001836929    0.0001087197   0.0001087197  
0.001899194    0.0001086936   0.0001086936  
0.001961575    0.0001086675   0.0001086675  
0.00202407     0.0001086414   0.0001086414  
0.002086674    0.0001086152   0.0001086152  
0.002149388    0.000108589    0.000108589   
0.002212213    0.0001085627   0.0001085627  
0.00227515     0.0001085365   0.0001085365  
0.002338193    0.0001085101   0.0001085101  
0.002401344    0.0001084838   0.0001084838  
0.002464603    0.0001084574   0.0001084574  
0.002527967    0.000108431    0.000108431   
0.002591436    0.0001084046   0.0001084046  
0.002655009    0.0001083781   0.0001083781  
0.002718685    0.0001083516   0.0001083516  
0.002782466    0.0001083251   0.0001083251  
0.002846349    0.0001082985   0.0001082985  
0.002910331    0.0001082719   0.0001082719  
0.002974415    0.0001082453   0.0001082453  
0.003051316    0.0001082134   0.0001082134  
0.003141075    0.0001081762   0.0001081762  
0.003243717    0.0001081336   0.0001081336  
0.003359269    0.0001080858   0.0001080858  
0.003487769    0.0001080326   0.0001080326  
0.003617726    0.0001079789   0.0001079789  
0.003748074    0.0001079251   0.0001079251  
0.003878816    0.0001078712   0.0001078712  
0.004009954    0.0001078172   0.0001078172  
0.00414149     0.0001077631   0.0001077631  
0.004273409    0.0001077088   0.0001077088  
0.004405714    0.0001076545   0.0001076545  
0.004538407    0.0001076001   0.0001076001  
0.00467149     0.0001075455   0.0001075455  
0.004804947    0.0001074909   0.0001074909  
0.004938782    0.0001074362   0.0001074362  
0.005072978    0.0001073813   0.0001073813  
0.005207537    0.0001073264   0.0001073264  
0.005342442    0.0001072714   0.0001072714  
0.005497615    0.0001072082   0.0001072082  
0.005673136    0.0001071369   0.0001071369  
0.005869062    0.0001070573   0.0001070573  
0.006073996    0.0001069743   0.0001069743  
0.006279735    0.000106891    0.000106891   
0.006486244    0.0001068076   0.0001068076  
0.006693485    0.000106724    0.000106724   
0.006901463    0.0001066402   0.0001066402  
0.007110141    0.0001065563   0.0001065563  
0.007319523    0.0001064722   0.0001064722  
0.00752957     0.0001063881   0.0001063881  
0.00774033     0.0001063037   0.0001063037  
0.007951719    0.0001062193   0.0001062193  
0.008163741    0.0001061347   0.0001061347  
0.008376399    0.0001060501   0.0001060501  
0.008589697    0.0001059653   0.0001059653  
0.008803593    0.0001058804   0.0001058804  
0.009018092    0.0001057954   0.0001057954  
0.009233195    0.0001057104   0.0001057104  
0.009448861    0.0001056252   0.0001056252  
0.009665091    0.00010554     0.00010554    
0.009881889    0.0001054546   0.0001054546  
0.01009921     0.0001053693   0.0001053693  
0.01031706     0.0001052838   0.0001052838  
0.01053544     0.0001051983   0.0001051983  
0.01075434     0.0001051128   0.0001051128  
0.01097374     0.0001050271   0.0001050271  
0.01119362     0.0001049415   0.0001049415  
0.01141399     0.0001048558   0.0001048558  
0.01163485     0.00010477     0.00010477    
0.01185621     0.0001046843   0.0001046843  
0.01207802     0.0001045984   0.0001045984  
0.01230027     0.0001045126   0.0001045126  
0.01252298     0.0001044267   0.0001044267  
0.01274614     0.0001043408   0.0001043408  
0.01296975     0.0001042549   0.0001042549  
0.01319382     0.0001041689   0.0001041689  
0.0134183      0.000104083    0.000104083   
0.01364319     0.000103997    0.000103997   
0.01386848     0.000103911    0.000103911   
0.0140942      0.000103825    0.000103825   
0.01432032     0.000103739    0.000103739   
0.01454686     0.000103653    0.000103653   
0.01477377     0.000103567    0.000103567   
0.01500104     0.0001034811   0.0001034811  
0.01522868     0.0001033951   0.0001033951  
0.01545669     0.0001033091   0.0001033091  
0.01568507     0.0001032232   0.0001032232  
0.01591377     0.0001031372   0.0001031372  
0.01614284     0.0001030513   0.0001030513  
0.01637228     0.0001029654   0.0001029654  
0.01660205     0.0001028796   0.0001028796  
0.01683219     0.0001027937   0.0001027937  
0.01706266     0.0001027079   0.0001027079  
0.01729345     0.0001026221   0.0001026221  
0.01752462     0.0001025363   0.0001025363  
0.01775611     0.0001024505   0.0001024505  
0.01798794     0.0001023648   0.0001023648  
0.01822009     0.0001022791   0.0001022791  
0.01845258     0.0001021934   0.0001021934  
0.01868539     0.0001021078   0.0001021078  
0.01891848     0.0001020222   0.0001020222  
0.01915191     0.0001019366   0.0001019366  
0.01938561     0.0001018511   0.0001018511  
0.01961965     0.0001017656   0.0001017656  
0.01985396     0.0001016802   0.0001016802  
0.02008856     0.0001015948   0.0001015948  
0.0203235      0.0001015094   0.0001015094  
0.02055871     0.0001014241   0.0001014241  
0.02079421     0.0001013388   0.0001013388  
0.02102999     0.0001012536   0.0001012536  
0.02126606     0.0001011685   0.0001011685  
0.02150241     0.0001010833   0.0001010833  
0.02173905     0.0001009983   0.0001009983  
0.02197598     0.0001009133   0.0001009133  
0.02221319     0.0001008283   0.0001008283  
0.02245063     0.0001007434   0.0001007434  
0.02268836     0.0001006585   0.0001006585  
0.02292638     0.0001005737   0.0001005737  
0.02316463     0.000100489    0.000100489   
0.02340312     0.0001004044   0.0001004044  
0.02364189     0.0001003197   0.0001003197  
0.02388091     0.0001002352   0.0001002352  
0.02412015     0.0001001507   0.0001001507  
0.02435969     0.0001000663   0.0001000663  
0.02459946     9.998191e-05   9.998191e-05  
0.02483947     9.989762e-05   9.989762e-05  
0.02507972     9.981339e-05   9.981339e-05  
0.0253202      9.972924e-05   9.972924e-05  
0.02556092     9.964515e-05   9.964515e-05  
0.02580188     9.956112e-05   9.956112e-05  
0.02604308     9.947717e-05   9.947717e-05  
0.02628452     9.939328e-05   9.939328e-05  
0.02652625     9.930944e-05   9.930944e-05  
0.02676823     9.922567e-05   9.922567e-05  
0.02701045     9.914197e-05   9.914197e-05  
0.02725291     9.905833e-05   9.905833e-05  
0.02749561     9.897476e-05   9.897476e-05  
0.02773855     9.889126e-05   9.889126e-05  
0.02798174     9.880782e-05   9.880782e-05  
0.02822517     9.872446e-05   9.872446e-05  
0.02846885     9.864116e-05   9.864116e-05  
0.02871277     9.855792e-05   9.855792e-05  
0.02895687     9.847477e-05   9.847477e-05  
0.02920122     9.839169e-05   9.839169e-05  
0.02944575     9.83087e-05    9.83087e-05   
0.02969053     9.822578e-05   9.822578e-05  
0.02993556     9.814292e-05   9.814292e-05  
0.03018077     9.806014e-05   9.806014e-05  
0.03042624     9.797744e-05   9.797744e-05  
0.03067188     9.789482e-05   9.789482e-05  
0.03091772     9.781228e-05   9.781228e-05  
0.0311638      9.772982e-05   9.772982e-05  
0.03141008     9.764743e-05   9.764743e-05  
0.03165654     9.756514e-05   9.756514e-05  
0.03190325     9.748291e-05   9.748291e-05  
0.03215015     9.740077e-05   9.740077e-05  
0.03239724     9.731871e-05   9.731871e-05  
0.03264452     9.723674e-05   9.723674e-05  
0.03289199     9.715486e-05   9.715486e-05  
0.03313958     9.707308e-05   9.707308e-05  
0.03338737     9.699139e-05   9.699139e-05  
0.03363534     9.690978e-05   9.690978e-05  
0.03388351     9.682826e-05   9.682826e-05  
0.03413187     9.674682e-05   9.674682e-05  
0.03438042     9.666547e-05   9.666547e-05  
0.03462916     9.65842e-05    9.65842e-05   
0.0348781      9.650302e-05   9.650302e-05  
0.03512723     9.642192e-05   9.642192e-05  
0.03537655     9.634091e-05   9.634091e-05  
0.03562606     9.625998e-05   9.625998e-05  
0.03587571     9.617915e-05   9.617915e-05  
0.03612554     9.609841e-05   9.609841e-05  
0.03637558     9.601776e-05   9.601776e-05  
0.0366258      9.593719e-05   9.593719e-05  
0.03687616     9.585672e-05   9.585672e-05  
0.03712671     9.577634e-05   9.577634e-05  
0.03737746     9.569603e-05   9.569603e-05  
0.03762834     9.561584e-05   9.561584e-05  
0.03787942     9.553573e-05   9.553573e-05  
0.03813062     9.545572e-05   9.545572e-05  
0.03838203     9.537579e-05   9.537579e-05  
0.03863363     9.529595e-05   9.529595e-05  
0.03888536     9.521621e-05   9.521621e-05  
0.03913729     9.513655e-05   9.513655e-05  
0.03938935     9.505699e-05   9.505699e-05  
0.03964161     9.497752e-05   9.497752e-05  
0.03989401     9.489815e-05   9.489815e-05  
0.0401466      9.481886e-05   9.481886e-05  
0.04039933     9.473968e-05   9.473968e-05  
0.04065225     9.466057e-05   9.466057e-05  
0.04090531     9.458157e-05   9.458157e-05  
0.04115857     9.450265e-05   9.450265e-05  
0.04141196     9.442383e-05   9.442383e-05  
0.04166549     9.434511e-05   9.434511e-05  
0.04191922     9.426648e-05   9.426648e-05  
0.04217309     9.418794e-05   9.418794e-05  
0.04242715     9.410949e-05   9.410949e-05  
0.04268135     9.403113e-05   9.403113e-05  
0.04293569     9.395288e-05   9.395288e-05  
0.04319022     9.387471e-05   9.387471e-05  
0.0434449      9.379664e-05   9.379664e-05  
0.04369978     9.371865e-05   9.371865e-05  
0.04395479     9.364075e-05   9.364075e-05  
0.04420994     9.356296e-05   9.356296e-05  
0.04446529     9.348525e-05   9.348525e-05  
0.04472078     9.340764e-05   9.340764e-05  
0.04497641     9.333013e-05   9.333013e-05  
0.04523224     9.325269e-05   9.325269e-05  
0.04548821     9.317536e-05   9.317536e-05  
0.04574432     9.309812e-05   9.309812e-05  
0.04600057     9.302099e-05   9.302099e-05  
0.04625695     9.294395e-05   9.294395e-05  
0.04651347     9.286701e-05   9.286701e-05  
0.04677013     9.279017e-05   9.279017e-05  
0.04702692     9.271343e-05   9.271343e-05  
0.04728386     9.263679e-05   9.263679e-05  
0.04754093     9.256025e-05   9.256025e-05  
0.04779822     9.248378e-05   9.248378e-05  
0.04805564     9.240741e-05   9.240741e-05  
0.0483132      9.233114e-05   9.233114e-05  
0.0485709      9.225496e-05   9.225496e-05  
0.04882874     9.217888e-05   9.217888e-05  
0.04908672     9.21029e-05    9.21029e-05   
0.04934491     9.2027e-05     9.2027e-05    
0.04960324     9.195119e-05   9.195119e-05  
0.04986171     9.187548e-05   9.187548e-05  
0.05012032     9.179987e-05   9.179987e-05  
0.05037907     9.172435e-05   9.172435e-05  
0.05063797     9.164893e-05   9.164893e-05  
0.05089693     9.157363e-05   9.157363e-05  
0.05115603     9.149842e-05   9.149842e-05  
0.05141528     9.14233e-05    9.14233e-05   
0.05167467     9.134828e-05   9.134828e-05  
0.05193427     9.127334e-05   9.127334e-05  
0.05219402     9.119849e-05   9.119849e-05  
0.0524539      9.112374e-05   9.112374e-05  
0.05271393     9.104908e-05   9.104908e-05  
0.0529741      9.097451e-05   9.097451e-05  
0.05323442     9.090004e-05   9.090004e-05  
0.05349488     9.082567e-05   9.082567e-05  
0.05375548     9.075139e-05   9.075139e-05  
0.05401622     9.06772e-05    9.06772e-05   
0.05427711     9.060311e-05   9.060311e-05  
0.05453807     9.052913e-05   9.052913e-05  
0.05479918     9.045524e-05   9.045524e-05  
0.05506043     9.038145e-05   9.038145e-05  
0.05532182     9.030775e-05   9.030775e-05  
0.05558336     9.023414e-05   9.023414e-05  
0.05584505     9.016063e-05   9.016063e-05  
0.05610687     9.008721e-05   9.008721e-05  
0.05636885     9.001388e-05   9.001388e-05  
0.05663097     8.994064e-05   8.994064e-05  
0.05689323     8.98675e-05    8.98675e-05   
0.05715565     8.979445e-05   8.979445e-05  
0.0574182      8.972149e-05   8.972149e-05  
0.05768083     8.964864e-05   8.964864e-05  
0.05794361     8.957588e-05   8.957588e-05  
0.05820653     8.950321e-05   8.950321e-05  
0.05846961     8.943064e-05   8.943064e-05  
0.05873282     8.935816e-05   8.935816e-05  
0.05899619     8.928576e-05   8.928576e-05  
0.05925963     8.921348e-05   8.921348e-05  
0.05952321     8.914129e-05   8.914129e-05  
0.05978695     8.906919e-05   8.906919e-05  
0.06005083     8.899718e-05   8.899718e-05  
0.06031486     8.892525e-05   8.892525e-05  
0.06057904     8.885342e-05   8.885342e-05  
0.06084337     8.878168e-05   8.878168e-05  
0.06110785     8.871003e-05   8.871003e-05  
0.0613724      8.863848e-05   8.863848e-05  
0.0616371      8.856703e-05   8.856703e-05  
0.06190195     8.849567e-05   8.849567e-05  
0.06216695     8.842439e-05   8.842439e-05  
0.0624321      8.83532e-05    8.83532e-05   
0.06269739     8.82821e-05    8.82821e-05   
0.06296277     8.821111e-05   8.821111e-05  
0.06322829     8.814021e-05   8.814021e-05  
0.06349397     8.80694e-05    8.80694e-05   
0.0637598      8.799867e-05   8.799867e-05  
0.0640257      8.792805e-05   8.792805e-05  
0.06429175     8.785752e-05   8.785752e-05  
0.06455795     8.778707e-05   8.778707e-05  
0.06482431     8.771672e-05   8.771672e-05  
0.06509074     8.764647e-05   8.764647e-05  
0.06535733     8.75763e-05    8.75763e-05   
0.06562406     8.750623e-05   8.750623e-05  
0.06589095     8.743623e-05   8.743623e-05  
0.06615799     8.736633e-05   8.736633e-05  
0.06642519     8.729651e-05   8.729651e-05  
0.06669246     8.72268e-05    8.72268e-05   
0.06695988     8.715717e-05   8.715717e-05  
0.06722738     8.708765e-05   8.708765e-05  
0.06749503     8.701822e-05   8.701822e-05  
0.06776284     8.694887e-05   8.694887e-05  
0.0680308      8.68796e-05    8.68796e-05   
0.06829884     8.681044e-05   8.681044e-05  
0.06856703     8.674137e-05   8.674137e-05  
0.06883538     8.667238e-05   8.667238e-05  
0.06910388     8.660347e-05   8.660347e-05  
0.06937246     8.653467e-05   8.653467e-05  
0.06964119     8.646595e-05   8.646595e-05  
0.06991008     8.639732e-05   8.639732e-05  
0.07017905     8.632879e-05   8.632879e-05  
0.07044818     8.626034e-05   8.626034e-05  
0.07071745     8.619198e-05   8.619198e-05  
0.07098689     8.61237e-05    8.61237e-05   
0.0712564      8.605552e-05   8.605552e-05  
0.07152607     8.598743e-05   8.598743e-05  
0.0717959      8.591942e-05   8.591942e-05  
0.07206588     8.585149e-05   8.585149e-05  
0.07233595     8.578366e-05   8.578366e-05  
0.07260617     8.571592e-05   8.571592e-05  
0.07287654     8.564825e-05   8.564825e-05  
0.07314708     8.558067e-05   8.558067e-05  
0.07341769     8.55132e-05    8.55132e-05   
0.07368846     8.54458e-05    8.54458e-05   
0.07395932     8.53785e-05    8.53785e-05   
0.07423033     8.531129e-05   8.531129e-05  
0.07450149     8.524416e-05   8.524416e-05  
0.07477274     8.517712e-05   8.517712e-05  
0.07504415     8.511017e-05   8.511017e-05  
0.07531572     8.50433e-05    8.50433e-05   
0.07558744     8.497651e-05   8.497651e-05  
0.07585925     8.490982e-05   8.490982e-05  
0.07613121     8.484321e-05   8.484321e-05  
0.07640334     8.477668e-05   8.477668e-05  
0.07667555     8.471025e-05   8.471025e-05  
0.07694791     8.46439e-05    8.46439e-05   
0.07722044     8.457763e-05   8.457763e-05  
0.07749305     8.451145e-05   8.451145e-05  
0.07776582     8.444536e-05   8.444536e-05  
0.07803875     8.437935e-05   8.437935e-05  
0.07831184     8.431341e-05   8.431341e-05  
0.07858502     8.424757e-05   8.424757e-05  
0.07885835     8.418181e-05   8.418181e-05  
0.07913177     8.411615e-05   8.411615e-05  
0.07940535     8.405057e-05   8.405057e-05  
0.07967909     8.398506e-05   8.398506e-05  
0.07995292     8.391966e-05   8.391966e-05  
0.0802269      8.385433e-05   8.385433e-05  
0.08050105     8.378908e-05   8.378908e-05  
0.08077528     8.372392e-05   8.372392e-05  
0.08104968     8.365884e-05   8.365884e-05  
0.08132424     8.359384e-05   8.359384e-05  
0.08159888     8.352894e-05   8.352894e-05  
0.08187369     8.346411e-05   8.346411e-05  
0.08214866     8.339936e-05   8.339936e-05  
0.08242371     8.333471e-05   8.333471e-05  
0.08269893     8.327013e-05   8.327013e-05  
0.08297431     8.320563e-05   8.320563e-05  
0.08324978     8.314122e-05   8.314122e-05  
0.08352532     8.307691e-05   8.307691e-05  
0.08380096     8.301269e-05   8.301269e-05  
0.08407667     8.294857e-05   8.294857e-05  
0.08435255     8.288452e-05   8.288452e-05  
0.08462851     8.282057e-05   8.282057e-05  
0.08490465     8.275669e-05   8.275669e-05  
0.08518086     8.269291e-05   8.269291e-05  
0.08545724     8.26292e-05    8.26292e-05   
0.0857337      8.256559e-05   8.256559e-05  
0.08601033     8.250205e-05   8.250205e-05  
0.08628705     8.24386e-05    8.24386e-05   
0.08656393     8.237523e-05   8.237523e-05  
0.0868409      8.231195e-05   8.231195e-05  
0.08711795     8.224876e-05   8.224876e-05  
0.08739517     8.218565e-05   8.218565e-05  
0.08767247     8.212263e-05   8.212263e-05  
0.08794994     8.205968e-05   8.205968e-05  
0.08822758     8.19968e-05    8.19968e-05   
0.08850531     8.193402e-05   8.193402e-05  
0.0887832      8.187131e-05   8.187131e-05  
0.08906118     8.180869e-05   8.180869e-05  
0.08933933     8.174614e-05   8.174614e-05  
0.08961757     8.168369e-05   8.168369e-05  
0.08989597     8.162131e-05   8.162131e-05  
0.09017455     8.1559e-05     8.1559e-05    
0.09045321     8.149678e-05   8.149678e-05  
0.09073204     8.143463e-05   8.143463e-05  
0.09101104     8.137255e-05   8.137255e-05  
0.09129013     8.131057e-05   8.131057e-05  
0.09156939     8.124865e-05   8.124865e-05  
0.09184873     8.118683e-05   8.118683e-05  
0.09212825     8.112507e-05   8.112507e-05  
0.09240785     8.106341e-05   8.106341e-05  
0.09268763     8.100182e-05   8.100182e-05  
0.09296758     8.094029e-05   8.094029e-05  
0.09324761     8.087886e-05   8.087886e-05  
0.09352782     8.08175e-05    8.08175e-05   
0.0938082      8.07562e-05    8.07562e-05   
0.09408867     8.0695e-05     8.0695e-05    
0.09436931     8.063386e-05   8.063386e-05  
0.09465004     8.057282e-05   8.057282e-05  
0.09493094     8.051184e-05   8.051184e-05  
0.09521202     8.045093e-05   8.045093e-05  
0.09549318     8.039011e-05   8.039011e-05  
0.09577452     8.032936e-05   8.032936e-05  
0.09605604     8.026868e-05   8.026868e-05  
0.09633764     8.020808e-05   8.020808e-05  
0.09661942     8.014756e-05   8.014756e-05  
0.09690137     8.00871e-05    8.00871e-05   
0.09718341     8.002673e-05   8.002673e-05  
0.09746563     7.996643e-05   7.996643e-05  
0.09774794     7.990621e-05   7.990621e-05  
0.09803042     7.984607e-05   7.984607e-05  
0.09831299     7.9786e-05     7.9786e-05    
0.09859574     7.972601e-05   7.972601e-05  
0.09887858     7.96661e-05    7.96661e-05   
0.0991616      7.960626e-05   7.960626e-05  
0.0994447      7.954651e-05   7.954651e-05  
0.09972798     7.948682e-05   7.948682e-05  
0.1000114      7.94272e-05    7.94272e-05   
0.100295       7.936767e-05   7.936767e-05  
0.1005787      7.93082e-05    7.93082e-05   
0.1008626      7.924879e-05   7.924879e-05  
0.1011466      7.918948e-05   7.918948e-05  
0.1014308      7.913022e-05   7.913022e-05  
0.1017152      7.907104e-05   7.907104e-05  
0.1019996      7.901194e-05   7.901194e-05  
0.1022842      7.89529e-05    7.89529e-05   
0.102569       7.889393e-05   7.889393e-05  
0.1028539      7.883505e-05   7.883505e-05  
0.103139       7.877622e-05   7.877622e-05  
0.1034243      7.871747e-05   7.871747e-05  
0.1037096      7.86588e-05    7.86588e-05   
0.1039952      7.860019e-05   7.860019e-05  
0.1042809      7.854165e-05   7.854165e-05  
0.1045668      7.848317e-05   7.848317e-05  
0.1048529      7.842475e-05   7.842475e-05  
0.105139       7.836642e-05   7.836642e-05  
0.1054254      7.830815e-05   7.830815e-05  
0.1057119      7.824995e-05   7.824995e-05  
0.1059987      7.819181e-05   7.819181e-05  
0.1062856      7.813374e-05   7.813374e-05  
0.1065726      7.807574e-05   7.807574e-05  
0.1068597      7.801781e-05   7.801781e-05  
0.107147       7.795997e-05   7.795997e-05  
0.1074345      7.790218e-05   7.790218e-05  
0.107722       7.784448e-05   7.784448e-05  
0.1080098      7.778684e-05   7.778684e-05  
0.1082977      7.772926e-05   7.772926e-05  
0.1085858      7.767175e-05   7.767175e-05  
0.108874       7.761431e-05   7.761431e-05  
0.1091624      7.755694e-05   7.755694e-05  
0.109451       7.749963e-05   7.749963e-05  
0.1097397      7.744238e-05   7.744238e-05  
0.1100286      7.738522e-05   7.738522e-05  
0.1103177      7.732811e-05   7.732811e-05  
0.1106069      7.727107e-05   7.727107e-05  
0.1108962      7.72141e-05    7.72141e-05   
0.1111857      7.71572e-05    7.71572e-05   
0.1114754      7.710036e-05   7.710036e-05  
0.1117652      7.70436e-05    7.70436e-05   
0.1120552      7.69869e-05    7.69869e-05   
0.1123454      7.693026e-05   7.693026e-05  
0.1126358      7.687368e-05   7.687368e-05  
0.1129262      7.681718e-05   7.681718e-05  
0.1132169      7.676075e-05   7.676075e-05  
0.1135076      7.670439e-05   7.670439e-05  
0.1137986      7.664809e-05   7.664809e-05  
0.1140897      7.659185e-05   7.659185e-05  
0.1143809      7.653568e-05   7.653568e-05  
0.1146723      7.647958e-05   7.647958e-05  
0.114964       7.642354e-05   7.642354e-05  
0.1152557      7.636758e-05   7.636758e-05  
0.1155476      7.631167e-05   7.631167e-05  
0.1158396      7.625584e-05   7.625584e-05  
0.1161317      7.620008e-05   7.620008e-05  
0.1164241      7.614437e-05   7.614437e-05  
0.1167166      7.608874e-05   7.608874e-05  
0.1170093      7.603316e-05   7.603316e-05  
0.117302       7.597767e-05   7.597767e-05  
0.117595       7.592223e-05   7.592223e-05  
0.1178881      7.586687e-05   7.586687e-05  
0.1181812      7.581158e-05   7.581158e-05  
0.1184746      7.575636e-05   7.575636e-05  
0.1187681      7.570119e-05   7.570119e-05  
0.1190618      7.56461e-05    7.56461e-05   
0.1193556      7.559106e-05   7.559106e-05  
0.1196497      7.553609e-05   7.553609e-05  
0.1199438      7.548118e-05   7.548118e-05  
0.1202381      7.542634e-05   7.542634e-05  
0.1205327      7.537155e-05   7.537155e-05  
0.1208273      7.531684e-05   7.531684e-05  
0.1211221      7.526219e-05   7.526219e-05  
0.1214171      7.520759e-05   7.520759e-05  
0.1217123      7.515306e-05   7.515306e-05  
0.1220076      7.50986e-05    7.50986e-05   
0.122303       7.504421e-05   7.504421e-05  
0.1225986      7.498987e-05   7.498987e-05  
0.1228943      7.493561e-05   7.493561e-05  
0.1231903      7.48814e-05    7.48814e-05   
0.1234863      7.482727e-05   7.482727e-05  
0.1237825      7.477319e-05   7.477319e-05  
0.1240788      7.471919e-05   7.471919e-05  
0.1243753      7.466524e-05   7.466524e-05  
0.1246721      7.461135e-05   7.461135e-05  
0.1249689      7.455754e-05   7.455754e-05  
0.1252659      7.450377e-05   7.450377e-05  
0.125563       7.445008e-05   7.445008e-05  
0.1258604      7.439645e-05   7.439645e-05  
0.1261578      7.434288e-05   7.434288e-05  
0.1264554      7.428938e-05   7.428938e-05  
0.1267531      7.423594e-05   7.423594e-05  
0.1270511      7.418256e-05   7.418256e-05  
0.1273491      7.412925e-05   7.412925e-05  
0.1276474      7.407599e-05   7.407599e-05  
0.1279457      7.402281e-05   7.402281e-05  
0.1282442      7.396968e-05   7.396968e-05  
0.1285429      7.391662e-05   7.391662e-05  
0.1288417      7.386362e-05   7.386362e-05  
0.1291407      7.381069e-05   7.381069e-05  
0.1294399      7.375781e-05   7.375781e-05  
0.1297392      7.370498e-05   7.370498e-05  
0.1300387      7.365222e-05   7.365222e-05  
0.1303384      7.359952e-05   7.359952e-05  
0.1306382      7.354689e-05   7.354689e-05  
0.1309381      7.349431e-05   7.349431e-05  
0.1312382      7.34418e-05    7.34418e-05   
0.1315385      7.338934e-05   7.338934e-05  
0.1318389      7.333696e-05   7.333696e-05  
0.1321395      7.328462e-05   7.328462e-05  
0.1324404      7.323234e-05   7.323234e-05  
0.1327413      7.318013e-05   7.318013e-05  
0.1330423      7.312799e-05   7.312799e-05  
0.1333435      7.30759e-05    7.30759e-05   
0.1336449      7.302387e-05   7.302387e-05  
0.1339464      7.29719e-05    7.29719e-05   
0.1342481      7.292e-05      7.292e-05     
0.13455        7.286815e-05   7.286815e-05  
0.1348519      7.281637e-05   7.281637e-05  
0.1351541      7.276464e-05   7.276464e-05  
0.1354564      7.271298e-05   7.271298e-05  
0.1357589      7.266137e-05   7.266137e-05  
0.1360616      7.260981e-05   7.260981e-05  
0.1363644      7.255831e-05   7.255831e-05  
0.1366675      7.250687e-05   7.250687e-05  
0.1369706      7.24555e-05    7.24555e-05   
0.1372739      7.240417e-05   7.240417e-05  
0.1375774      7.235292e-05   7.235292e-05  
0.1378811      7.230171e-05   7.230171e-05  
0.1381849      7.225057e-05   7.225057e-05  
0.1384887      7.21995e-05    7.21995e-05   
0.1387928      7.214848e-05   7.214848e-05  
0.139097       7.209752e-05   7.209752e-05  
0.1394015      7.204661e-05   7.204661e-05  
0.139706       7.199577e-05   7.199577e-05  
0.1400107      7.194498e-05   7.194498e-05  
0.1403156      7.189426e-05   7.189426e-05  
0.1406207      7.184358e-05   7.184358e-05  
0.1409258      7.179297e-05   7.179297e-05  
0.1412312      7.174241e-05   7.174241e-05  
0.1415367      7.169192e-05   7.169192e-05  
0.1418425      7.164147e-05   7.164147e-05  
0.1421483      7.159109e-05   7.159109e-05  
0.1424543      7.154076e-05   7.154076e-05  
0.1427605      7.149049e-05   7.149049e-05  
0.1430669      7.144027e-05   7.144027e-05  
0.1433733      7.139012e-05   7.139012e-05  
0.1436801      7.134001e-05   7.134001e-05  
0.1439869      7.128997e-05   7.128997e-05  
0.1442939      7.123997e-05   7.123997e-05  
0.144601       7.119004e-05   7.119004e-05  
0.1449084      7.114016e-05   7.114016e-05  
0.1452159      7.109034e-05   7.109034e-05  
0.1455236      7.104057e-05   7.104057e-05  
0.1458314      7.099086e-05   7.099086e-05  
0.1461393      7.094122e-05   7.094122e-05  
0.1464475      7.089162e-05   7.089162e-05  
0.1467557      7.084209e-05   7.084209e-05  
0.1470642      7.07926e-05    7.07926e-05   
0.1473728      7.074318e-05   7.074318e-05  
0.1476816      7.06938e-05    7.06938e-05   
0.1479905      7.064449e-05   7.064449e-05  
0.1482997      7.059522e-05   7.059522e-05  
0.1486089      7.054602e-05   7.054602e-05  
0.1489184      7.049686e-05   7.049686e-05  
0.149228       7.044776e-05   7.044776e-05  
0.1495378      7.039871e-05   7.039871e-05  
0.1498478      7.034972e-05   7.034972e-05  
0.1501579      7.030077e-05   7.030077e-05  
0.1504682      7.025189e-05   7.025189e-05  
0.1507786      7.020307e-05   7.020307e-05  
0.1510892      7.01543e-05    7.01543e-05   
0.1513999      7.010559e-05   7.010559e-05  
0.1517109      7.005692e-05   7.005692e-05  
0.1520219      7.000831e-05   7.000831e-05  
0.1523331      6.995977e-05   6.995977e-05  
0.1526445      6.991127e-05   6.991127e-05  
0.1529561      6.986283e-05   6.986283e-05  
0.1532678      6.981443e-05   6.981443e-05  
0.1535797      6.97661e-05    6.97661e-05   
0.1538918      6.971781e-05   6.971781e-05  
0.154204       6.966958e-05   6.966958e-05  
0.1545164      6.962141e-05   6.962141e-05  
0.1548289      6.957329e-05   6.957329e-05  
0.1551416      6.952522e-05   6.952522e-05  
0.1554545      6.94772e-05    6.94772e-05   
0.1557675      6.942924e-05   6.942924e-05  
0.1560808      6.938132e-05   6.938132e-05  
0.1563942      6.933346e-05   6.933346e-05  
0.1567077      6.928566e-05   6.928566e-05  
0.1570214      6.923791e-05   6.923791e-05  
0.1573352      6.919021e-05   6.919021e-05  
0.1576492      6.914258e-05   6.914258e-05  
0.1579634      6.909498e-05   6.909498e-05  
0.1582777      6.904745e-05   6.904745e-05  
0.1585922      6.899995e-05   6.899995e-05  
0.1589069      6.895252e-05   6.895252e-05  
0.1592217      6.890515e-05   6.890515e-05  
0.1595367      6.885781e-05   6.885781e-05  
0.1598518      6.881054e-05   6.881054e-05  
0.1601672      6.876331e-05   6.876331e-05  
0.1604827      6.871613e-05   6.871613e-05  
0.1607983      6.866902e-05   6.866902e-05  
0.1611141      6.862194e-05   6.862194e-05  
0.1614301      6.857493e-05   6.857493e-05  
0.1617463      6.852795e-05   6.852795e-05  