# Probe 0 (0 0 0)
# Probe 1 (0 0.011 0)
# Time         0              1             
46             0.01274472     0.01274952    
46.00014       0.01274462     0.01274933    
46.00027       0.01274453     0.01274915    
46.00041       0.01274444     0.01274897    
46.00054       0.01274434     0.01274878    
46.00068       0.01274425     0.0127486     
46.00081       0.01274416     0.01274842    
46.00095       0.01274407     0.01274823    
46.00108       0.01274398     0.01274804    
46.00122       0.01274389     0.01274785    
46.00135       0.0127438      0.01274767    
46.00148       0.01274371     0.01274748    
46.00162       0.01274362     0.01274729    
46.00175       0.01274354     0.01274711    
46.00188       0.01274345     0.01274692    
46.00202       0.01274336     0.01274673    
46.00215       0.01274328     0.01274655    
46.00228       0.01274319     0.01274636    
46.00241       0.01274311     0.01274618    
46.00254       0.01274302     0.01274599    
46.00267       0.01274294     0.0127458     
46.00281       0.01274286     0.01274562    
46.00294       0.01274277     0.01274543    
46.00307       0.01274269     0.01274525    
46.0032        0.01274261     0.01274506    
46.00333       0.01274253     0.01274488    
46.00346       0.01274245     0.01274469    
46.00359       0.01274237     0.01274451    
46.00371       0.01274229     0.01274432    
46.00384       0.01274221     0.01274413    
46.00397       0.01274213     0.01274395    
46.0041        0.01274205     0.01274376    
46.00423       0.01274197     0.01274358    
46.00436       0.0127419      0.01274339    
46.00449       0.01274182     0.0127432     
46.00461       0.01274175     0.01274302    
46.00474       0.01274167     0.01274283    
46.00487       0.0127416      0.01274264    
46.005         0.01274152     0.01274245    
46.00512       0.01274145     0.01274226    
46.00525       0.01274137     0.01274207    
46.00538       0.0127413      0.01274189    
46.0055        0.01274123     0.0127417     
46.00563       0.01274116     0.01274151    
46.00575       0.01274109     0.01274132    
46.00588       0.01274102     0.01274113    
46.00601       0.01274095     0.01274094    
46.00613       0.01274088     0.01274074    
46.00626       0.01274081     0.01274055    
46.00638       0.01274075     0.01274036    
46.00651       0.01274068     0.01274017    
46.00663       0.01274061     0.01273998    
46.00676       0.01274055     0.01273979    
46.00688       0.01274048     0.0127396     
46.00701       0.01274042     0.01273941    
46.00713       0.01274036     0.01273921    
46.00726       0.01274029     0.01273902    
46.00738       0.01274023     0.01273883    
46.0075        0.01274017     0.01273864    
46.00763       0.01274011     0.01273844    
46.00775       0.01274005     0.01273825    
46.00788       0.01273999     0.01273806    
46.008         0.01273993     0.01273786    
46.00812       0.01273987     0.0127378     
46.00825       0.01273981     0.01273759    
46.00837       0.01273975     0.01273738    
46.00849       0.0127397      0.01273718    
46.00862       0.01273964     0.01273697    
46.00874       0.01273959     0.01273676    
46.00886       0.01273953     0.01273656    
46.00898       0.01273948     0.01273635    
46.00911       0.01273942     0.01273615    
46.00923       0.01273937     0.01273594    
46.00935       0.01273931     0.01273574    
46.00948       0.01273926     0.01273554    
46.0096        0.01273921     0.01273534    
46.00972       0.01273916     0.01273513    
46.00984       0.01273911     0.01273493    
46.00997       0.01273906     0.01273473    
46.01009       0.01273901     0.01273453    
46.01021       0.01273896     0.01273433    
46.01033       0.01273891     0.01273413    
46.01045       0.01273886     0.01273394    
46.01058       0.01273881     0.01273374    
46.0107        0.01273876     0.01273354    
46.01082       0.01273872     0.01273334    
46.01094       0.01273867     0.01273314    
46.01107       0.01273863     0.01273295    
46.01119       0.01273858     0.01273275    
46.01131       0.01273853     0.01273255    
46.01143       0.01273849     0.01273236    
46.01155       0.01273845     0.01273216    
46.01168       0.0127384      0.01273197    
46.0118        0.01273836     0.01273177    
46.01192       0.01273832     0.01273158    
46.01204       0.01273827     0.01273138    
46.01216       0.01273823     0.01273119    
46.01229       0.01273819     0.01273099    
46.01241       0.01273815     0.0127308     
46.01253       0.01273811     0.0127306     
46.01265       0.01273807     0.01273041    
46.01277       0.01273803     0.01273021    
46.0129        0.01273799     0.01273002    
46.01302       0.01273795     0.01272982    
46.01314       0.01273792     0.01272963    
46.01326       0.01273788     0.01272943    
46.01339       0.01273784     0.01272923    
46.01351       0.01273781     0.01272904    
46.01363       0.01273777     0.01272884    
46.01375       0.01273773     0.01272864    
46.01388       0.0127377      0.01272844    
46.014         0.01273766     0.01272825    
46.01412       0.01273763     0.01272805    
46.01424       0.01273759     0.01272785    
46.01437       0.01273756     0.01272765    
46.01449       0.01273753     0.01272745    
46.01461       0.0127375      0.01274852    
46.01473       0.01273746     0.01274835    
46.01486       0.01273743     0.01274818    
46.01498       0.0127374      0.012748      
46.0151        0.01273737     0.01274782    
46.01523       0.01273734     0.01274765    
46.01535       0.01273731     0.01274747    
46.01547       0.01273728     0.01274729    
46.0156        0.01273725     0.0127471     
46.01572       0.01273722     0.01274692    
46.01585       0.0127372      0.01275572    
46.01597       0.01273717     0.01275574    
46.01609       0.01273714     0.01275575    
46.01622       0.01273711     0.01272425    
46.01634       0.01273709     0.01272429    
46.01647       0.01273706     0.01272433    
46.01659       0.01273703     0.01272437    
46.01672       0.01273701     0.01272441    
46.01684       0.01273698     0.01272445    
46.01697       0.01273696     0.01272449    
46.01709       0.01273694     0.01272453    
46.01722       0.01273691     0.01272458    
46.01734       0.01273689     0.01272462    
46.01747       0.01273687     0.01272466    
46.01759       0.01273684     0.0127247     
46.01772       0.01273682     0.01272474    
46.01784       0.0127368      0.01272478    
46.01797       0.01273678     0.01272482    
46.0181        0.01273676     0.01272486    
46.01822       0.01273674     0.01272491    
46.01835       0.01273672     0.01272495    
46.01848       0.0127367      0.01272499    
46.0186        0.01273668     0.01271764    
46.01873       0.01273666     0.01271763    
46.01886       0.01273664     0.01271762    
46.01898       0.01273662     0.01271762    
46.01911       0.0127366      0.01271761    
46.01924       0.01273658     0.0127176     
46.01937       0.01273657     0.01271759    
46.0195        0.01273655     0.01271759    
46.01962       0.01273653     0.01271758    
46.01975       0.01273652     0.01271757    
46.01988       0.0127365      0.01271757    
46.02001       0.01273649     0.01271756    
46.02014       0.01273647     0.01271755    
46.02027       0.01273646     0.01271754    
46.0204        0.01273645     0.0127023     
46.02053       0.01273643     0.0127023     
46.02066       0.01273642     0.0127023     
46.02079       0.01273641     0.0127023     
46.02092       0.0127364      0.0127023     
46.02105       0.01273638     0.0127023     
46.02118       0.01273637     0.0127023     
46.02131       0.01273636     0.0127023     
46.02144       0.01273635     0.0127023     
46.02158       0.01273634     0.01270231    
46.02171       0.01273633     0.01270231    
46.02184       0.01273632     -1.797693e+307
46.02197       0.01273631     -1.797693e+307
46.02211       0.0127363      -1.797693e+307
46.02224       0.0127363      -1.797693e+307
46.02237       0.01273629     -1.797693e+307
46.02251       0.01273628     -1.797693e+307
46.02264       0.01273628     -1.797693e+307
46.02277       0.01273627     -1.797693e+307
46.02291       0.01273626     -1.797693e+307
46.02304       0.01273626     -1.797693e+307
46.02318       0.01273625     -1.797693e+307
46.02331       0.01273625     -1.797693e+307
46.02345       0.01273624     -1.797693e+307
46.02359       0.01273624     -1.797693e+307
46.02372       0.01273624     -1.797693e+307
46.02386       0.01273623     -1.797693e+307
46.024         0.01273623     -1.797693e+307
46.02413       0.01273623     -1.797693e+307
46.02427       0.01273623     -1.797693e+307
46.02441       0.01273623     -1.797693e+307
46.02455       0.01273622     -1.797693e+307
46.02469       0.01273622     -1.797693e+307
46.02483       0.01273622     -1.797693e+307
46.02497       0.01273622     -1.797693e+307
46.02511       0.01273623     -1.797693e+307
46.02525       0.01273623     -1.797693e+307
46.02539       0.01273623     -1.797693e+307
46.02553       0.01273623     -1.797693e+307
46.02567       0.01273623     -1.797693e+307
46.02581       0.01273624     -1.797693e+307
46.02595       0.01273624     -1.797693e+307
46.0261        0.01273624     -1.797693e+307
46.02624       0.01273625     -1.797693e+307
46.02638       0.01273625     -1.797693e+307
46.02653       0.01273626     -1.797693e+307
46.02667       0.01273626     -1.797693e+307
46.02682       0.01273627     -1.797693e+307
46.02696       0.01273627     -1.797693e+307
46.02711       0.01273628     -1.797693e+307
46.02726       0.01273629     -1.797693e+307
46.0274        0.0127363      -1.797693e+307
46.02755       0.0127363      -1.797693e+307
46.0277        0.01273631     -1.797693e+307
46.02785       0.01273632     -1.797693e+307
46.028         0.01273633     -1.797693e+307
46.02815       0.01273634     -1.797693e+307
46.0283        0.01273635     -1.797693e+307
46.02845       0.01273636     -1.797693e+307
46.0286        0.01273637     -1.797693e+307
46.02875       0.01273638     -1.797693e+307
46.0289        0.01273639     -1.797693e+307
46.02905       0.0127364      -1.797693e+307
46.02921       0.01273642     -1.797693e+307
46.02936       0.01273643     -1.797693e+307
46.02952       0.01273644     -1.797693e+307
46.02967       0.01273646     -1.797693e+307
46.02983       0.01273647     -1.797693e+307
46.02999       0.01273649     -1.797693e+307
46.03014       0.0127365      -1.797693e+307
46.0303        0.01273652     -1.797693e+307
46.03046       0.01273653     -1.797693e+307
46.03062       0.01273655     -1.797693e+307
46.03078       0.01273656     -1.797693e+307
46.03094       0.01273658     -1.797693e+307
46.0311        0.0127366      -1.797693e+307
46.03127       0.01273662     -1.797693e+307
46.03143       0.01273664     -1.797693e+307
46.03159       0.01273665     -1.797693e+307
46.03176       0.01273667     -1.797693e+307
46.03193       0.01273669     -1.797693e+307
46.03209       0.01273671     -1.797693e+307
46.03226       0.01273673     -1.797693e+307
46.03243       0.01273675     -1.797693e+307
46.0326        0.01273677     -1.797693e+307
46.03277       0.0127368      -1.797693e+307
46.03294       0.01273682     -1.797693e+307
46.03311       0.01273684     -1.797693e+307
46.03328       0.01273686     -1.797693e+307
46.03345       0.01273688     -1.797693e+307
46.03362       0.01273691     -1.797693e+307
46.03379       0.01273693     -1.797693e+307
46.03396       0.01273695     -1.797693e+307
46.03413       0.01273698     -1.797693e+307
46.0343        0.012737       -1.797693e+307
46.03447       0.01273703     -1.797693e+307
46.03464       0.01273705     -1.797693e+307
46.03481       0.01273708     -1.797693e+307
46.03498       0.0127371      -1.797693e+307
46.03515       0.01273713     -1.797693e+307
46.03532       0.01273716     -1.797693e+307
46.03549       0.01273718     -1.797693e+307
46.03566       0.01273721     -1.797693e+307
46.03583       0.01273724     -1.797693e+307
46.036         0.01273726     -1.797693e+307
46.03617       0.01273729     -1.797693e+307
46.03634       0.01273732     -1.797693e+307
46.03651       0.01273735     -1.797693e+307
46.03668       0.01273738     -1.797693e+307
46.03685       0.01273741     -1.797693e+307
46.03702       0.01273744     -1.797693e+307
46.03719       0.01273747     -1.797693e+307
46.03736       0.0127375      -1.797693e+307
46.03753       0.01273753     -1.797693e+307
46.0377        0.01273757     -1.797693e+307
46.03787       0.0127376      -1.797693e+307
46.03804       0.01273763     -1.797693e+307
46.03821       0.01273767     -1.797693e+307
46.03838       0.0127377      -1.797693e+307
46.03856       0.01273774     -1.797693e+307
46.03873       0.01273777     -1.797693e+307
46.0389        0.01273781     -1.797693e+307
46.03907       0.01273784     -1.797693e+307
46.03924       0.01273788     -1.797693e+307
46.03941       0.01273792     -1.797693e+307
46.03958       0.01273796     -1.797693e+307
46.03975       0.01273799     -1.797693e+307
46.03992       0.01273803     -1.797693e+307
46.04009       0.01273807     -1.797693e+307
46.04025       0.01273811     -1.797693e+307
46.04042       0.01273815     -1.797693e+307
46.04059       0.01273819     -1.797693e+307
46.04076       0.01273823     -1.797693e+307
46.04093       0.01273827     0.01248952    
46.04109       0.01273831     0.01248958    
46.04126       0.01273835     0.01248963    
46.04143       0.01273839     0.01248969    
46.04159       0.01273844     0.01248975    
46.04176       0.01273848     0.0124898     
46.04193       0.01273852     0.01248986    
46.04209       0.01273857     0.01248991    
46.04226       0.01273861     0.0126885     
46.04243       0.01273865     0.01268821    
46.04259       0.0127387      0.01268791    
46.04276       0.01273875     0.01268761    
46.04292       0.01273879     0.01268731    
46.04309       0.01273884     0.012687      
46.04325       0.01273888     0.0126867     
46.04342       0.01273893     0.01268639    
46.04358       0.01273898     0.01268609    
46.04374       0.01273903     0.01268578    
46.04391       0.01273907     0.01282616    
46.04407       0.01273912     0.01280043    
46.04424       0.01273917     0.01279993    
46.0444        0.01273922     0.01279943    
46.04456       0.01273927     0.01279893    
46.04473       0.01273932     0.01279843    
46.04489       0.01273937     0.01279793    
46.04505       0.01273943     0.01279743    
46.04522       0.01273948     0.01279693    
46.04538       0.01273953     0.01279642    
46.04554       0.01273958     0.01279592    
46.0457        0.01273964     0.01279542    
46.04587       0.01273969     0.01279492    
46.04603       0.01273974     0.01278507    
46.04619       0.0127398      0.01278443    
46.04635       0.01273985     0.0127838     
46.04651       0.01273991     0.01278319    
46.04668       0.01273996     0.01278259    
46.04684       0.01274002     0.01278201    
46.047         0.01274008     0.01278143    
46.04716       0.01274013     0.01278088    
46.04732       0.01274019     0.01278033    
46.04748       0.01274025     0.0127798     
46.04764       0.01274031     0.01277929    
46.0478        0.01274037     0.01277878    
46.04797       0.01274043     0.01277829    
46.04813       0.01274049     0.01277782    
46.04829       0.01274055     0.01277736    
46.04845       0.01274061     0.01277691    
46.04861       0.01274067     0.01277647    
46.04877       0.01274073     0.01277605    
46.04893       0.01274079     0.01277565    
46.04909       0.01274086     0.01277525    
46.04925       0.01274092     0.01277488    
46.04941       0.01274098     0.01277451    
46.04957       0.01274105     0.01290342    
46.04973       0.01274111     0.01290365    
46.04989       0.01274118     0.0129039     
46.05005       0.01274124     0.01290416    
46.05021       0.01274131     0.01274097    
46.05037       0.01274138     0.01274126    
46.05053       0.01274144     0.01274157    
46.05069       0.01274151     0.01274189    
46.05085       0.01274158     0.01274223    
46.051         0.01274165     0.01274257    
46.05116       0.01274172     0.01274293    
46.05132       0.01274179     0.01274331    
46.05148       0.01274186     0.0127437     
46.05164       0.01274193     0.0127441     
46.0518        0.012742       0.01274452    
46.05196       0.01274208     0.01274495    
46.05212       0.01274215     0.01274539    
46.05228       0.01274222     0.01266998    
46.05244       0.0127423      0.01266982    
46.0526        0.01274237     0.01266967    
46.05275       0.01274245     0.01266952    
46.05291       0.01274253     0.01266938    
46.05307       0.0127426      0.01266924    
46.05323       0.01274268     0.01266911    
46.05339       0.01274276     0.01266898    
46.05355       0.01274284     0.01266886    
46.05371       0.01274292     0.01266875    
46.05387       0.012743       0.01266864    
46.05402       0.01274308     0.01266854    
46.05418       0.01274316     0.01266845    
46.05434       0.01274325     0.01266836    
46.0545        0.01274333     0.01266828    
46.05466       0.01274342     0.01266821    
46.05482       0.0127435      0.01266814    
46.05497       0.01274359     0.01266808    
46.05513       0.01274368     0.01266803    
46.05529       0.01274377     0.01266798    
46.05545       0.01274386     0.01266794    
46.05561       0.01274395     0.01266791    
46.05577       0.01274404     0.01266789    
46.05592       0.01274414     0.01266787    
46.05608       0.01274423     0.01266786    
46.05624       0.01274433     0.01266786    
46.0564        0.01274442     0.01266787    
46.05656       0.01274452     0.01266788    
46.05672       0.01274462     0.01266791    
46.05688       0.01274472     0.01266794    
46.05703       0.01274482     0.01266798    
46.05719       0.01274493     0.01266802    
46.05735       0.01274503     0.01266808    
46.05751       0.01274514     0.01266815    
46.05767       0.01274524     0.01266822    
46.05783       0.01274535     0.0126683     
46.05799       0.01274546     0.01266839    
46.05815       0.01274557     0.01266849    
46.05831       0.01274568     0.0126686     
46.05846       0.0127458      0.01266872    
46.05862       0.01274591     0.01266884    
46.05878       0.01274603     0.01266898    
46.05894       0.01274615     0.01266913    
46.0591        0.01274627     0.01266928    
46.05926       0.01274639     0.01266945    
46.05942       0.01274652     0.01266962    
46.05958       0.01274664     0.0126698     
46.05974       0.01274677     0.01267       
46.0599        0.0127469      0.0126702     
46.06006       0.01274703     0.01267042    
46.06022       0.01274717     0.01267064    
46.06038       0.0127473      0.01267087    
46.06054       0.01274744     0.01267112    
46.0607        0.01274758     0.01267137    
46.06086       0.01274772     0.01267164    
46.06102       0.01274786     0.01267191    
46.06118       0.012748       0.0126722     
46.06134       0.01274815     0.0126725     
46.0615        0.0127483      0.0126728     
46.06166       0.01274844     0.01269455    
46.06182       0.01274859     0.01269465    
46.06198       0.01274874     0.01269475    
46.06214       0.0127489      0.01269486    
46.0623        0.01274905     0.01269498    
46.06246       0.01274921     0.01269511    
46.06262       0.01274937     0.01269524    
46.06278       0.01274953     0.01269539    
46.06294       0.01274969     0.01269555    
46.0631        0.01274985     0.01269572    
46.06326       0.01275002     0.01269591    
46.06342       0.01275018     0.01269611    
46.06358       0.01275035     0.01269632    
46.06375       0.01275052     0.01269656    
46.06391       0.01275069     0.0126968     
46.06407       0.01275086     0.01269707    
46.06423       0.01275104     0.01269735    
46.06439       0.01275122     0.01269765    
46.06455       0.01275139     0.01269797    
46.06471       0.01275157     0.0126983     
46.06487       0.01275176     0.01269865    
46.06503       0.01275194     0.01269901    
46.0652        0.01275212     0.01269939    
46.06536       0.01275231     0.01269979    
46.06552       0.0127525      0.01270021    
46.06568       0.01275269     0.01270064    
46.06584       0.01275288     0.01270109    
46.066         0.01275307     0.01270156    
46.06616       0.01275326     0.01270204    
46.06633       0.01275346     0.01270255    
46.06649       0.01275365     0.01270306    
46.06665       0.01275385     0.01284795    
46.06681       0.01275405     0.01284814    
46.06697       0.01275425     0.01284833    
46.06713       0.01275445     0.01284852    
46.0673        0.01275465     0.01284872    
46.06746       0.01275486     0.01284891    
46.06762       0.01275507     0.0128491     
46.06778       0.01275528     0.0128493     
46.06794       0.01275549     0.01284949    
46.06811       0.01275571     0.01284968    
46.06827       0.01275593     0.01284987    
46.06843       0.01275615     0.01285006    
46.06859       0.01275637     0.01285025    
46.06875       0.0127566      0.01285044    
46.06891       0.01275683     0.01285062    
46.06908       0.01275706     0.01285081    
46.06924       0.01275729     0.012851      
46.0694        0.01275753     0.01285118    
46.06956       0.01275776     0.01285136    
46.06972       0.01275801     0.01285154    
46.06989       0.01275825     0.01285172    
46.07005       0.01275849     0.0128519     
46.07021       0.01275874     0.01285208    
46.07037       0.01275899     0.01285226    
46.07053       0.01275924     0.01285243    
46.07069       0.0127595      0.0128526     
46.07086       0.01275975     0.01285278    
46.07102       0.01276001     0.01285295    
46.07118       0.01276027     0.01285312    
46.07134       0.01276054     0.01285328    
46.0715        0.0127608      0.01285345    
46.07166       0.01276106     0.01285361    
46.07182       0.01276133     0.01285378    
46.07199       0.0127616      0.01285394    
46.07215       0.01276186     0.0128541     
46.07231       0.01276213     0.01285426    
46.07247       0.0127624      0.01285442    
46.07263       0.01276267     0.01285457    
46.07279       0.01276294     0.01285473    
46.07295       0.01276321     0.01285489    
46.07311       0.01276348     0.01285504    
46.07327       0.01276374     0.0128552     
46.07343       0.01276401     0.01285535    
46.07359       0.01276428     0.01285551    
46.07375       0.01276454     0.01285566    
46.07391       0.01276481     0.01285582    
46.07407       0.01276507     0.01285597    
46.07423       0.01276534     0.01285612    
46.07439       0.0127656      0.01285627    
46.07455       0.01276587     0.01285642    
46.07471       0.01276613     0.01285657    
46.07487       0.0127664      0.01285671    
46.07503       0.01276666     0.01285686    
46.07519       0.01276693     0.012857      
46.07535       0.01276719     0.01285714    
46.07551       0.01276745     0.01285728    
46.07566       0.01276772     0.01285742    
46.07582       0.01276798     0.01285755    
46.07598       0.01276825     0.01285769    
46.07614       0.01276851     0.01285782    
46.0763        0.01276878     0.01285795    
46.07645       0.01276904     0.01285807    
46.07661       0.01276931     0.0128582     
46.07677       0.01276957     0.01285832    
46.07692       0.01276983     0.01285844    
46.07708       0.0127701      0.01285856    
46.07724       0.01277036     0.01285867    
46.0774        0.01277062     0.01285879    
46.07755       0.01277088     0.0128589     
46.07771       0.01277114     0.01285901    
46.07786       0.0127714      0.01285911    
46.07802       0.01277166     0.01285921    
46.07818       0.01277192     0.01285931    
46.07833       0.01277218     0.01285941    
46.07849       0.01277243     0.0128595     
46.07864       0.01277269     0.01285959    
46.0788        0.01277294     0.01285968    
46.07896       0.0127732      0.01285977    
46.07911       0.01277345     0.01285985    
46.07927       0.0127737      0.01285993    
46.07942       0.01277395     0.01286001    
46.07958       0.01277419     0.01286009    
46.07973       0.01277444     0.01286016    
46.07989       0.01277468     0.01286023    
46.08004       0.01277493     0.0128603     
46.0802        0.01277517     0.01286036    
46.08035       0.0127754      0.01286042    
46.0805        0.01277564     0.01286048    
46.08066       0.01277588     0.01286053    
46.08081       0.01277611     0.01273946    
46.08097       0.01277634     0.01273986    
46.08112       0.01277657     0.01274027    
46.08127       0.0127768      0.01274067    
46.08143       0.01277703     0.01274107    
46.08158       0.01277725     0.01274148    
46.08174       0.01277748     0.01274188    
46.08189       0.0127777      0.01274228    
46.08204       0.01277791     0.01274268    
46.0822        0.01277813     0.01274308    
46.08235       0.01277835     0.01274349    
46.0825        0.01277856     0.01274389    
46.08265       0.01277877     0.01274429    
46.08281       0.01277898     0.01274469    
46.08296       0.01277919     0.01274509    
46.08311       0.01277939     0.01274549    
46.08327       0.0127796      0.01274589    
46.08342       0.0127798      0.01274629    
46.08357       0.01278        0.01274669    
46.08372       0.0127802      0.01274709    
46.08387       0.01278039     0.01274749    
46.08403       0.01278058     0.01274789    
46.08418       0.01278078     0.01274829    
46.08433       0.01278096     0.01274868    
46.08448       0.01278115     0.01274908    
46.08463       0.01278133     0.01274948    
46.08478       0.01278152     0.01274987    
46.08494       0.01278169     0.01275027    
46.08509       0.01278187     0.01275066    
46.08524       0.01278204     0.01275106    
46.08539       0.01278222     0.01275145    
46.08554       0.01278238     0.01275185    
46.08569       0.01278255     0.01275224    
46.08584       0.01278271     0.01275263    
46.08599       0.01278287     0.01275303    
46.08615       0.01278302     0.01275342    
46.0863        0.01278318     0.01275381    
46.08645       0.01278332     0.01275421    
46.0866        0.01278347     0.01275461    
46.08675       0.01278361     0.01275501    
46.0869        0.01278376     0.01275542    
46.08705       0.01278389     0.01275583    
46.0872        0.01278403     0.01275624    
46.08735       0.01278416     0.01275666    
46.0875        0.01278429     0.01275707    
46.08765       0.01278442     0.01275749    
46.0878        0.01278455     0.01275792    
46.08795       0.01278467     0.01275834    
46.0881        0.01278479     0.01275877    
46.08825       0.01278491     0.0127592     
46.0884        0.01278503     0.01275964    
46.08855       0.01278514     0.01276008    
46.0887        0.01278524     0.01276052    
46.08885       0.01278535     0.01276096    
46.089         0.01278545     0.0127614     
46.08915       0.01278554     0.01276185    
46.0893        0.01278564     0.0127623     
46.08945       0.01278573     0.01276276    
46.0896        0.01278582     0.01276321    
46.08974       0.01278591     0.01276367    
46.08989       0.01278599     0.01276412    
46.09004       0.01278608     0.01276458    
46.09019       0.01278616     0.01276504    
46.09034       0.01278624     0.0127655     
46.09049       0.01278631     0.01276596    
46.09064       0.01278639     0.01276642    
46.09079       0.01278646     0.01276688    
46.09094       0.01278653     0.01276735    
46.09109       0.0127866      0.01276781    
46.09123       0.01278666     0.01276827    
46.09138       0.01278672     0.01276874    
46.09153       0.01278678     0.0127692     
46.09168       0.01278684     0.01276967    
46.09183       0.01278689     0.01277013    
46.09198       0.01278695     0.0127706     
46.09213       0.012787       0.01277106    
46.09227       0.01278704     0.01277153    
46.09242       0.01278709     0.01277199    
46.09257       0.01278713     0.01277246    
46.09272       0.01278717     0.01277292    
46.09287       0.01278721     0.01277338    
46.09302       0.01278724     0.01277385    
46.09316       0.01278727     0.01277431    
46.09331       0.0127873      0.01277477    
46.09346       0.01278732     0.01277523    
46.09361       0.01278735     0.01277569    
46.09376       0.01278737     0.01277614    
46.09391       0.01278738     0.0127766     
46.09405       0.0127874      0.01277704    
46.0942        0.01278741     0.01277749    
46.09435       0.01278742     0.01277793    
46.0945        0.01278743     0.01277837    
46.09465       0.01278743     0.01277881    
46.09479       0.01278744     0.01277924    
46.09494       0.01278743     0.01277966    
46.09509       0.01278743     0.01278009    
46.09524       0.01278743     0.01278051    
46.09539       0.01278742     0.01278092    
46.09553       0.01278741     0.01278134    
46.09568       0.01278739     0.01278174    
46.09583       0.01278737     0.01278215    
46.09598       0.01278736     0.01278255    
46.09612       0.01278733     0.01278294    
46.09627       0.01278731     0.01278334    
46.09642       0.01278728     0.01278372    
46.09657       0.01278725     0.01278411    
46.09672       0.01278722     0.01278449    
46.09686       0.01278718     0.01278486    
46.09701       0.01278714     0.01278523    
46.09716       0.0127871      0.01278559    
46.09731       0.01278705     0.01278595    
46.09745       0.01278701     0.0127863     
46.0976        0.01278696     0.01278665    
46.09775       0.0127869      0.01278698    
46.0979        0.01278685     0.01278731    
46.09804       0.01278679     0.01278763    
46.09819       0.01278673     0.01278794    
46.09834       0.01278666     0.01278824    
46.09849       0.01278659     0.01278854    
46.09863       0.01278652     0.01278882    