# Probe 0 (0 0 0)
# Probe 1 (0 0.011 0)
# Time         0              1             
46             6.528295e-05   6.528295e-05  
46.00014       6.528295e-05   6.528295e-05  
46.00027       6.528295e-05   6.528295e-05  
46.00041       6.528295e-05   6.528295e-05  
46.00054       6.528295e-05   6.528295e-05  
46.00068       6.528295e-05   6.528295e-05  
46.00081       6.528295e-05   6.528295e-05  
46.00095       6.528295e-05   6.528295e-05  
46.00108       6.528295e-05   6.528295e-05  
46.00122       6.528295e-05   6.528295e-05  
46.00135       6.528295e-05   6.528295e-05  
46.00148       6.528295e-05   6.528295e-05  
46.00162       6.528295e-05   6.528295e-05  
46.00175       6.528295e-05   6.528295e-05  
46.00188       6.528295e-05   6.528295e-05  
46.00202       6.528295e-05   6.528295e-05  
46.00215       6.528295e-05   6.528295e-05  
46.00228       6.528295e-05   6.528295e-05  
46.00241       6.528295e-05   6.528295e-05  
46.00254       6.528294e-05   6.528294e-05  
46.00267       6.528294e-05   6.528294e-05  
46.00281       6.528294e-05   6.528294e-05  
46.00294       6.528294e-05   6.528294e-05  
46.00307       6.528294e-05   6.528294e-05  
46.0032        6.528294e-05   6.528294e-05  
46.00333       6.528294e-05   6.528294e-05  
46.00346       6.528294e-05   6.528294e-05  
46.00359       6.528294e-05   6.528294e-05  
46.00371       6.528294e-05   6.528294e-05  
46.00384       6.528294e-05   6.528294e-05  
46.00397       6.528294e-05   6.528294e-05  
46.0041        6.528294e-05   6.528294e-05  
46.00423       6.528294e-05   6.528294e-05  
46.00436       6.528294e-05   6.528294e-05  
46.00449       6.528294e-05   6.528294e-05  
46.00461       6.528294e-05   6.528294e-05  
46.00474       6.528294e-05   6.528294e-05  
46.00487       6.528294e-05   6.528294e-05  
46.005         6.528294e-05   6.528294e-05  
46.00512       6.528294e-05   6.528294e-05  
46.00525       6.528294e-05   6.528294e-05  
46.00538       6.528294e-05   6.528294e-05  
46.0055        6.528294e-05   6.528294e-05  
46.00563       6.528294e-05   6.528294e-05  
46.00575       6.528294e-05   6.528294e-05  
46.00588       6.528294e-05   6.528294e-05  
46.00601       6.528294e-05   6.528294e-05  
46.00613       6.528294e-05   6.528294e-05  
46.00626       6.528294e-05   6.528294e-05  
46.00638       6.528294e-05   6.528294e-05  
46.00651       6.528294e-05   6.528294e-05  
46.00663       6.528294e-05   6.528294e-05  
46.00676       6.528294e-05   6.528294e-05  
46.00688       6.528294e-05   6.528294e-05  
46.00701       6.528294e-05   6.528294e-05  
46.00713       6.528294e-05   6.528294e-05  
46.00726       6.528294e-05   6.528294e-05  
46.00738       6.528294e-05   6.528294e-05  
46.0075        6.528294e-05   6.528294e-05  
46.00763       6.528294e-05   6.528294e-05  
46.00775       6.528294e-05   6.528294e-05  
46.00788       6.528294e-05   6.528294e-05  
46.008         6.528294e-05   6.528294e-05  
46.00812       6.528294e-05   6.528294e-05  
46.00825       6.528294e-05   6.528294e-05  
46.00837       6.528294e-05   6.528294e-05  
46.00849       6.528294e-05   6.528294e-05  
46.00862       6.528294e-05   6.528294e-05  
46.00874       6.528294e-05   6.528294e-05  
46.00886       6.528294e-05   6.528294e-05  
46.00898       6.528294e-05   6.528294e-05  
46.00911       6.528294e-05   6.528294e-05  
46.00923       6.528294e-05   6.528294e-05  
46.00935       6.528294e-05   6.528294e-05  
46.00948       6.528294e-05   6.528294e-05  
46.0096        6.528294e-05   6.528294e-05  
46.00972       6.528294e-05   6.528294e-05  
46.00984       6.528294e-05   6.528294e-05  
46.00997       6.528294e-05   6.528294e-05  
46.01009       6.528294e-05   6.528294e-05  
46.01021       6.528294e-05   6.528294e-05  
46.01033       6.528294e-05   6.528294e-05  
46.01045       6.528294e-05   6.528294e-05  
46.01058       6.528294e-05   6.528294e-05  
46.0107        6.528294e-05   6.528294e-05  
46.01082       6.528294e-05   6.528294e-05  
46.01094       6.528294e-05   6.528294e-05  
46.01107       6.528294e-05   6.528294e-05  
46.01119       6.528294e-05   6.528294e-05  
46.01131       6.528294e-05   6.528294e-05  
46.01143       6.528294e-05   6.528294e-05  
46.01155       6.528294e-05   6.528294e-05  
46.01168       6.528294e-05   6.528294e-05  
46.0118        6.528294e-05   6.528294e-05  
46.01192       6.528294e-05   6.528294e-05  
46.01204       6.528294e-05   6.528294e-05  
46.01216       6.528294e-05   6.528294e-05  
46.01229       6.528294e-05   6.528294e-05  
46.01241       6.528294e-05   6.528294e-05  
46.01253       6.528294e-05   6.528294e-05  
46.01265       6.528294e-05   6.528294e-05  
46.01277       6.528294e-05   6.528294e-05  
46.0129        6.528294e-05   6.528294e-05  
46.01302       6.528295e-05   6.528295e-05  
46.01314       6.528295e-05   6.528295e-05  
46.01326       6.528295e-05   6.528295e-05  
46.01339       6.528295e-05   6.528295e-05  
46.01351       6.528295e-05   6.528295e-05  
46.01363       6.528295e-05   6.528295e-05  
46.01375       6.528295e-05   6.528295e-05  
46.01388       6.528295e-05   6.528295e-05  
46.014         6.528295e-05   6.528295e-05  
46.01412       6.528295e-05   6.528295e-05  
46.01424       6.528295e-05   6.528295e-05  
46.01437       6.528295e-05   6.528295e-05  
46.01449       6.528295e-05   6.528295e-05  
46.01461       6.528295e-05   6.528295e-05  
46.01473       6.528295e-05   6.528295e-05  
46.01486       6.528295e-05   6.528295e-05  
46.01498       6.528295e-05   6.528295e-05  
46.0151        6.528295e-05   6.528295e-05  
46.01523       6.528295e-05   6.528295e-05  
46.01535       6.528295e-05   6.528295e-05  
46.01547       6.528295e-05   6.528295e-05  
46.0156        6.528295e-05   6.528295e-05  
46.01572       6.528295e-05   6.528295e-05  
46.01585       6.528295e-05   6.528295e-05  
46.01597       6.528295e-05   6.528295e-05  
46.01609       6.528295e-05   6.528295e-05  
46.01622       6.528295e-05   6.528295e-05  
46.01634       6.528295e-05   6.528295e-05  
46.01647       6.528295e-05   6.528295e-05  
46.01659       6.528295e-05   6.528295e-05  
46.01672       6.528295e-05   6.528295e-05  
46.01684       6.528295e-05   6.528295e-05  
46.01697       6.528295e-05   6.528295e-05  
46.01709       6.528296e-05   6.528296e-05  
46.01722       6.528296e-05   6.528296e-05  
46.01734       6.528296e-05   6.528296e-05  
46.01747       6.528296e-05   6.528296e-05  
46.01759       6.528296e-05   6.528296e-05  
46.01772       6.528296e-05   6.528296e-05  
46.01784       6.528296e-05   6.528296e-05  
46.01797       6.528296e-05   6.528296e-05  
46.0181        6.528296e-05   6.528296e-05  
46.01822       6.528296e-05   6.528296e-05  
46.01835       6.528296e-05   6.528296e-05  
46.01848       6.528296e-05   6.528296e-05  
46.0186        6.528296e-05   6.528296e-05  
46.01873       6.528296e-05   6.528296e-05  
46.01886       6.528296e-05   6.528296e-05  
46.01898       6.528296e-05   6.528296e-05  
46.01911       6.528296e-05   6.528296e-05  
46.01924       6.528296e-05   6.528296e-05  
46.01937       6.528296e-05   6.528296e-05  
46.0195        6.528296e-05   6.528296e-05  
46.01962       6.528296e-05   6.528296e-05  
46.01975       6.528296e-05   6.528296e-05  
46.01988       6.528297e-05   6.528297e-05  
46.02001       6.528297e-05   6.528297e-05  
46.02014       6.528297e-05   6.528297e-05  
46.02027       6.528297e-05   6.528297e-05  
46.0204        6.528297e-05   6.528297e-05  
46.02053       6.528297e-05   6.528297e-05  
46.02066       6.528297e-05   6.528297e-05  
46.02079       6.528297e-05   6.528297e-05  
46.02092       6.528297e-05   6.528297e-05  
46.02105       6.528297e-05   6.528297e-05  
46.02118       6.528297e-05   6.528297e-05  
46.02131       6.528297e-05   6.528297e-05  
46.02144       6.528297e-05   6.528297e-05  
46.02158       6.528297e-05   6.528297e-05  
46.02171       6.528297e-05   6.528297e-05  
46.02184       6.528297e-05   -1.797693e+307
46.02197       6.528297e-05   -1.797693e+307
46.02211       6.528298e-05   -1.797693e+307
46.02224       6.528298e-05   -1.797693e+307
46.02237       6.528298e-05   -1.797693e+307
46.02251       6.528298e-05   -1.797693e+307
46.02264       6.528298e-05   -1.797693e+307
46.02277       6.528298e-05   -1.797693e+307
46.02291       6.528298e-05   -1.797693e+307
46.02304       6.528298e-05   -1.797693e+307
46.02318       6.528298e-05   -1.797693e+307
46.02331       6.528298e-05   -1.797693e+307
46.02345       6.528298e-05   -1.797693e+307
46.02359       6.528298e-05   -1.797693e+307
46.02372       6.528298e-05   -1.797693e+307
46.02386       6.528298e-05   -1.797693e+307
46.024         6.528299e-05   -1.797693e+307
46.02413       6.528299e-05   -1.797693e+307
46.02427       6.528299e-05   -1.797693e+307
46.02441       6.528299e-05   -1.797693e+307
46.02455       6.528299e-05   -1.797693e+307
46.02469       6.528299e-05   -1.797693e+307
46.02483       6.528299e-05   -1.797693e+307
46.02497       6.528299e-05   -1.797693e+307
46.02511       6.528299e-05   -1.797693e+307
46.02525       6.528299e-05   -1.797693e+307
46.02539       6.528299e-05   -1.797693e+307
46.02553       6.5283e-05     -1.797693e+307
46.02567       6.5283e-05     -1.797693e+307
46.02581       6.5283e-05     -1.797693e+307
46.02595       6.5283e-05     -1.797693e+307
46.0261        6.5283e-05     -1.797693e+307
46.02624       6.5283e-05     -1.797693e+307
46.02638       6.5283e-05     -1.797693e+307
46.02653       6.5283e-05     -1.797693e+307
46.02667       6.5283e-05     -1.797693e+307
46.02682       6.5283e-05     -1.797693e+307
46.02696       6.5283e-05     -1.797693e+307
46.02711       6.528301e-05   -1.797693e+307
46.02726       6.528301e-05   -1.797693e+307
46.0274        6.528301e-05   -1.797693e+307
46.02755       6.528301e-05   -1.797693e+307
46.0277        6.528301e-05   -1.797693e+307
46.02785       6.528301e-05   -1.797693e+307
46.028         6.528301e-05   -1.797693e+307
46.02815       6.528301e-05   -1.797693e+307
46.0283        6.528301e-05   -1.797693e+307
46.02845       6.528302e-05   -1.797693e+307
46.0286        6.528302e-05   -1.797693e+307
46.02875       6.528302e-05   -1.797693e+307
46.0289        6.528302e-05   -1.797693e+307
46.02905       6.528302e-05   -1.797693e+307
46.02921       6.528302e-05   -1.797693e+307
46.02936       6.528302e-05   -1.797693e+307
46.02952       6.528302e-05   -1.797693e+307
46.02967       6.528302e-05   -1.797693e+307
46.02983       6.528303e-05   -1.797693e+307
46.02999       6.528303e-05   -1.797693e+307
46.03014       6.528303e-05   -1.797693e+307
46.0303        6.528303e-05   -1.797693e+307
46.03046       6.528303e-05   -1.797693e+307
46.03062       6.528303e-05   -1.797693e+307
46.03078       6.528303e-05   -1.797693e+307
46.03094       6.528304e-05   -1.797693e+307
46.0311        6.528304e-05   -1.797693e+307
46.03127       6.528304e-05   -1.797693e+307
46.03143       6.528304e-05   -1.797693e+307
46.03159       6.528304e-05   -1.797693e+307
46.03176       6.528304e-05   -1.797693e+307
46.03193       6.528304e-05   -1.797693e+307
46.03209       6.528305e-05   -1.797693e+307
46.03226       6.528305e-05   -1.797693e+307
46.03243       6.528305e-05   -1.797693e+307
46.0326        6.528305e-05   -1.797693e+307
46.03277       6.528305e-05   -1.797693e+307
46.03294       6.528305e-05   -1.797693e+307
46.03311       6.528305e-05   -1.797693e+307
46.03328       6.528306e-05   -1.797693e+307
46.03345       6.528306e-05   -1.797693e+307
46.03362       6.528306e-05   -1.797693e+307
46.03379       6.528306e-05   -1.797693e+307
46.03396       6.528306e-05   -1.797693e+307
46.03413       6.528306e-05   -1.797693e+307
46.0343        6.528307e-05   -1.797693e+307
46.03447       6.528307e-05   -1.797693e+307
46.03464       6.528307e-05   -1.797693e+307
46.03481       6.528307e-05   -1.797693e+307
46.03498       6.528307e-05   -1.797693e+307
46.03515       6.528307e-05   -1.797693e+307
46.03532       6.528308e-05   -1.797693e+307
46.03549       6.528308e-05   -1.797693e+307
46.03566       6.528308e-05   -1.797693e+307
46.03583       6.528308e-05   -1.797693e+307
46.036         6.528308e-05   -1.797693e+307
46.03617       6.528309e-05   -1.797693e+307
46.03634       6.528309e-05   -1.797693e+307
46.03651       6.528309e-05   -1.797693e+307
46.03668       6.528309e-05   -1.797693e+307
46.03685       6.528309e-05   -1.797693e+307
46.03702       6.528309e-05   -1.797693e+307
46.03719       6.52831e-05    -1.797693e+307
46.03736       6.52831e-05    -1.797693e+307
46.03753       6.52831e-05    -1.797693e+307
46.0377        6.52831e-05    -1.797693e+307
46.03787       6.52831e-05    -1.797693e+307
46.03804       6.528311e-05   -1.797693e+307
46.03821       6.528311e-05   -1.797693e+307
46.03838       6.528311e-05   -1.797693e+307
46.03856       6.528311e-05   -1.797693e+307
46.03873       6.528311e-05   -1.797693e+307
46.0389        6.528312e-05   -1.797693e+307
46.03907       6.528312e-05   -1.797693e+307
46.03924       6.528312e-05   -1.797693e+307
46.03941       6.528312e-05   -1.797693e+307
46.03958       6.528312e-05   -1.797693e+307
46.03975       6.528313e-05   -1.797693e+307
46.03992       6.528313e-05   -1.797693e+307
46.04009       6.528313e-05   -1.797693e+307
46.04025       6.528313e-05   -1.797693e+307
46.04042       6.528313e-05   -1.797693e+307
46.04059       6.528314e-05   -1.797693e+307
46.04076       6.528314e-05   -1.797693e+307
46.04093       6.528314e-05   6.528314e-05  
46.04109       6.528314e-05   6.528314e-05  
46.04126       6.528315e-05   6.528315e-05  
46.04143       6.528315e-05   6.528315e-05  
46.04159       6.528315e-05   6.528315e-05  
46.04176       6.528315e-05   6.528315e-05  
46.04193       6.528315e-05   6.528315e-05  
46.04209       6.528316e-05   6.528316e-05  
46.04226       6.528316e-05   6.528316e-05  
46.04243       6.528316e-05   6.528316e-05  
46.04259       6.528316e-05   6.528316e-05  
46.04276       6.528316e-05   6.528316e-05  
46.04292       6.528317e-05   6.528317e-05  
46.04309       6.528317e-05   6.528317e-05  
46.04325       6.528317e-05   6.528317e-05  
46.04342       6.528317e-05   6.528317e-05  
46.04358       6.528318e-05   6.528318e-05  
46.04374       6.528318e-05   6.528318e-05  
46.04391       6.528318e-05   6.528318e-05  
46.04407       6.528318e-05   6.528318e-05  
46.04424       6.528319e-05   6.528319e-05  
46.0444        6.528319e-05   6.528319e-05  
46.04456       6.528319e-05   6.528319e-05  
46.04473       6.528319e-05   6.528319e-05  
46.04489       6.528319e-05   6.528319e-05  
46.04505       6.52832e-05    6.52832e-05   
46.04522       6.52832e-05    6.52832e-05   
46.04538       6.52832e-05    6.52832e-05   
46.04554       6.52832e-05    6.52832e-05   
46.0457        6.528321e-05   6.528321e-05  
46.04587       6.528321e-05   6.528321e-05  
46.04603       6.528321e-05   6.528321e-05  
46.04619       6.528321e-05   6.528321e-05  
46.04635       6.528322e-05   6.528322e-05  
46.04651       6.528322e-05   6.528322e-05  
46.04668       6.528322e-05   6.528322e-05  
46.04684       6.528322e-05   6.528322e-05  
46.047         6.528323e-05   6.528323e-05  
46.04716       6.528323e-05   6.528323e-05  
46.04732       6.528323e-05   6.528323e-05  
46.04748       6.528323e-05   6.528323e-05  
46.04764       6.528324e-05   6.528324e-05  
46.0478        6.528324e-05   6.528324e-05  
46.04797       6.528324e-05   6.528324e-05  
46.04813       6.528324e-05   6.528324e-05  
46.04829       6.528325e-05   6.528325e-05  
46.04845       6.528325e-05   6.528325e-05  
46.04861       6.528325e-05   6.528325e-05  
46.04877       6.528325e-05   6.528325e-05  
46.04893       6.528326e-05   6.528326e-05  
46.04909       6.528326e-05   6.528326e-05  
46.04925       6.528326e-05   6.528326e-05  
46.04941       6.528326e-05   6.528326e-05  
46.04957       6.528327e-05   6.528327e-05  
46.04973       6.528327e-05   6.528327e-05  
46.04989       6.528327e-05   6.528327e-05  
46.05005       6.528327e-05   6.528327e-05  
46.05021       6.528328e-05   6.528328e-05  
46.05037       6.528328e-05   6.528328e-05  
46.05053       6.528328e-05   6.528328e-05  
46.05069       6.528329e-05   6.528329e-05  
46.05085       6.528329e-05   6.528329e-05  
46.051         6.528329e-05   6.528329e-05  
46.05116       6.528329e-05   6.528329e-05  
46.05132       6.52833e-05    6.52833e-05   
46.05148       6.52833e-05    6.52833e-05   
46.05164       6.52833e-05    6.52833e-05   
46.0518        6.52833e-05    6.52833e-05   
46.05196       6.528331e-05   6.528331e-05  
46.05212       6.528331e-05   6.528331e-05  
46.05228       6.528331e-05   6.528331e-05  
46.05244       6.528332e-05   6.528332e-05  
46.0526        6.528332e-05   6.528332e-05  
46.05275       6.528332e-05   6.528332e-05  
46.05291       6.528332e-05   6.528332e-05  
46.05307       6.528333e-05   6.528333e-05  
46.05323       6.528333e-05   6.528333e-05  
46.05339       6.528333e-05   6.528333e-05  
46.05355       6.528334e-05   6.528334e-05  
46.05371       6.528334e-05   6.528334e-05  
46.05387       6.528334e-05   6.528334e-05  
46.05402       6.528334e-05   6.528334e-05  
46.05418       6.528335e-05   6.528335e-05  
46.05434       6.528335e-05   6.528335e-05  
46.0545        6.528335e-05   6.528335e-05  
46.05466       6.528336e-05   6.528336e-05  
46.05482       6.528336e-05   6.528336e-05  
46.05497       6.528336e-05   6.528336e-05  
46.05513       6.528337e-05   6.528337e-05  
46.05529       6.528337e-05   6.528337e-05  
46.05545       6.528337e-05   6.528337e-05  
46.05561       6.528337e-05   6.528337e-05  
46.05577       6.528338e-05   6.528338e-05  
46.05592       6.528338e-05   6.528338e-05  
46.05608       6.528338e-05   6.528338e-05  
46.05624       6.528339e-05   6.528339e-05  
46.0564        6.528339e-05   6.528339e-05  
46.05656       6.528339e-05   6.528339e-05  
46.05672       6.52834e-05    6.52834e-05   
46.05688       6.52834e-05    6.52834e-05   
46.05703       6.52834e-05    6.52834e-05   
46.05719       6.528341e-05   6.528341e-05  
46.05735       6.528341e-05   6.528341e-05  
46.05751       6.528341e-05   6.528341e-05  
46.05767       6.528342e-05   6.528342e-05  
46.05783       6.528342e-05   6.528342e-05  
46.05799       6.528342e-05   6.528342e-05  
46.05815       6.528342e-05   6.528342e-05  
46.05831       6.528343e-05   6.528343e-05  
46.05846       6.528343e-05   6.528343e-05  
46.05862       6.528343e-05   6.528343e-05  
46.05878       6.528344e-05   6.528344e-05  
46.05894       6.528344e-05   6.528344e-05  
46.0591        6.528344e-05   6.528344e-05  
46.05926       6.528345e-05   6.528345e-05  
46.05942       6.528345e-05   6.528345e-05  
46.05958       6.528345e-05   6.528345e-05  
46.05974       6.528346e-05   6.528346e-05  
46.0599        6.528346e-05   6.528346e-05  
46.06006       6.528346e-05   6.528346e-05  
46.06022       6.528347e-05   6.528347e-05  
46.06038       6.528347e-05   6.528347e-05  
46.06054       6.528347e-05   6.528347e-05  
46.0607        6.528348e-05   6.528348e-05  
46.06086       6.528348e-05   6.528348e-05  
46.06102       6.528348e-05   6.528348e-05  
46.06118       6.528349e-05   6.528349e-05  
46.06134       6.528349e-05   6.528349e-05  
46.0615        6.52835e-05    6.52835e-05   
46.06166       6.52835e-05    6.52835e-05   
46.06182       6.52835e-05    6.52835e-05   
46.06198       6.528351e-05   6.528351e-05  
46.06214       6.528351e-05   6.528351e-05  
46.0623        6.528351e-05   6.528351e-05  
46.06246       6.528352e-05   6.528352e-05  
46.06262       6.528352e-05   6.528352e-05  
46.06278       6.528352e-05   6.528352e-05  
46.06294       6.528353e-05   6.528353e-05  
46.0631        6.528353e-05   6.528353e-05  
46.06326       6.528353e-05   6.528353e-05  
46.06342       6.528354e-05   6.528354e-05  
46.06358       6.528354e-05   6.528354e-05  
46.06375       6.528355e-05   6.528355e-05  
46.06391       6.528355e-05   6.528355e-05  
46.06407       6.528355e-05   6.528355e-05  
46.06423       6.528356e-05   6.528356e-05  
46.06439       6.528356e-05   6.528356e-05  
46.06455       6.528356e-05   6.528356e-05  
46.06471       6.528357e-05   6.528357e-05  
46.06487       6.528357e-05   6.528357e-05  
46.06503       6.528357e-05   6.528357e-05  
46.0652        6.528358e-05   6.528358e-05  
46.06536       6.528358e-05   6.528358e-05  
46.06552       6.528359e-05   6.528359e-05  
46.06568       6.528359e-05   6.528359e-05  
46.06584       6.528359e-05   6.528359e-05  
46.066         6.52836e-05    6.52836e-05   
46.06616       6.52836e-05    6.52836e-05   
46.06633       6.528361e-05   6.528361e-05  
46.06649       6.528361e-05   6.528361e-05  
46.06665       6.528361e-05   6.528361e-05  
46.06681       6.528362e-05   6.528362e-05  
46.06697       6.528362e-05   6.528362e-05  
46.06713       6.528362e-05   6.528362e-05  
46.0673        6.528363e-05   6.528363e-05  
46.06746       6.528363e-05   6.528363e-05  
46.06762       6.528364e-05   6.528364e-05  
46.06778       6.528364e-05   6.528364e-05  
46.06794       6.528364e-05   6.528364e-05  
46.06811       6.528365e-05   6.528365e-05  
46.06827       6.528365e-05   6.528365e-05  
46.06843       6.528366e-05   6.528366e-05  
46.06859       6.528366e-05   6.528366e-05  
46.06875       6.528366e-05   6.528366e-05  
46.06891       6.528367e-05   6.528367e-05  
46.06908       6.528367e-05   6.528367e-05  
46.06924       6.528368e-05   6.528368e-05  
46.0694        6.528368e-05   6.528368e-05  
46.06956       6.528368e-05   6.528368e-05  
46.06972       6.528369e-05   6.528369e-05  
46.06989       6.528369e-05   6.528369e-05  
46.07005       6.52837e-05    6.52837e-05   
46.07021       6.52837e-05    6.52837e-05   
46.07037       6.528371e-05   6.528371e-05  
46.07053       6.528371e-05   6.528371e-05  
46.07069       6.528371e-05   6.528371e-05  
46.07086       6.528372e-05   6.528372e-05  
46.07102       6.528372e-05   6.528372e-05  
46.07118       6.528373e-05   6.528373e-05  
46.07134       6.528373e-05   6.528373e-05  
46.0715        6.528373e-05   6.528373e-05  
46.07166       6.528374e-05   6.528374e-05  
46.07182       6.528374e-05   6.528374e-05  
46.07199       6.528375e-05   6.528375e-05  
46.07215       6.528375e-05   6.528375e-05  
46.07231       6.528376e-05   6.528376e-05  
46.07247       6.528376e-05   6.528376e-05  
46.07263       6.528376e-05   6.528376e-05  
46.07279       6.528377e-05   6.528377e-05  
46.07295       6.528377e-05   6.528377e-05  
46.07311       6.528378e-05   6.528378e-05  
46.07327       6.528378e-05   6.528378e-05  
46.07343       6.528378e-05   6.528378e-05  
46.07359       6.528379e-05   6.528379e-05  
46.07375       6.528379e-05   6.528379e-05  
46.07391       6.52838e-05    6.52838e-05   
46.07407       6.52838e-05    6.52838e-05   
46.07423       6.528381e-05   6.528381e-05  
46.07439       6.528381e-05   6.528381e-05  
46.07455       6.528381e-05   6.528381e-05  
46.07471       6.528382e-05   6.528382e-05  
46.07487       6.528382e-05   6.528382e-05  
46.07503       6.528383e-05   6.528383e-05  
46.07519       6.528383e-05   6.528383e-05  
46.07535       6.528384e-05   6.528384e-05  
46.07551       6.528384e-05   6.528384e-05  
46.07566       6.528385e-05   6.528385e-05  
46.07582       6.528385e-05   6.528385e-05  
46.07598       6.528385e-05   6.528385e-05  
46.07614       6.528386e-05   6.528386e-05  
46.0763        6.528386e-05   6.528386e-05  
46.07645       6.528387e-05   6.528387e-05  
46.07661       6.528387e-05   6.528387e-05  
46.07677       6.528388e-05   6.528388e-05  
46.07692       6.528388e-05   6.528388e-05  
46.07708       6.528388e-05   6.528388e-05  
46.07724       6.528389e-05   6.528389e-05  
46.0774        6.528389e-05   6.528389e-05  
46.07755       6.52839e-05    6.52839e-05   
46.07771       6.52839e-05    6.52839e-05   
46.07786       6.528391e-05   6.528391e-05  
46.07802       6.528391e-05   6.528391e-05  
46.07818       6.528392e-05   6.528392e-05  
46.07833       6.528392e-05   6.528392e-05  
46.07849       6.528392e-05   6.528392e-05  
46.07864       6.528393e-05   6.528393e-05  
46.0788        6.528393e-05   6.528393e-05  
46.07896       6.528394e-05   6.528394e-05  
46.07911       6.528394e-05   6.528394e-05  
46.07927       6.528395e-05   6.528395e-05  
46.07942       6.528395e-05   6.528395e-05  
46.07958       6.528396e-05   6.528396e-05  
46.07973       6.528396e-05   6.528396e-05  
46.07989       6.528396e-05   6.528396e-05  
46.08004       6.528397e-05   6.528397e-05  
46.0802        6.528397e-05   6.528397e-05  
46.08035       6.528398e-05   6.528398e-05  
46.0805        6.528398e-05   6.528398e-05  
46.08066       6.528399e-05   6.528399e-05  
46.08081       6.528399e-05   6.528399e-05  
46.08097       6.5284e-05     6.5284e-05    
46.08112       6.5284e-05     6.5284e-05    
46.08127       6.528401e-05   6.528401e-05  
46.08143       6.528401e-05   6.528401e-05  
46.08158       6.528401e-05   6.528401e-05  
46.08174       6.528402e-05   6.528402e-05  
46.08189       6.528402e-05   6.528402e-05  
46.08204       6.528403e-05   6.528403e-05  
46.0822        6.528403e-05   6.528403e-05  
46.08235       6.528404e-05   6.528404e-05  
46.0825        6.528404e-05   6.528404e-05  
46.08265       6.528405e-05   6.528405e-05  
46.08281       6.528405e-05   6.528405e-05  
46.08296       6.528406e-05   6.528406e-05  
46.08311       6.528406e-05   6.528406e-05  
46.08327       6.528406e-05   6.528406e-05  
46.08342       6.528407e-05   6.528407e-05  
46.08357       6.528407e-05   6.528407e-05  
46.08372       6.528408e-05   6.528408e-05  
46.08387       6.528408e-05   6.528408e-05  
46.08403       6.528409e-05   6.528409e-05  
46.08418       6.528409e-05   6.528409e-05  
46.08433       6.52841e-05    6.52841e-05   
46.08448       6.52841e-05    6.52841e-05   
46.08463       6.528411e-05   6.528411e-05  
46.08478       6.528411e-05   6.528411e-05  
46.08494       6.528412e-05   6.528412e-05  
46.08509       6.528412e-05   6.528412e-05  
46.08524       6.528412e-05   6.528412e-05  
46.08539       6.528413e-05   6.528413e-05  
46.08554       6.528413e-05   6.528413e-05  
46.08569       6.528414e-05   6.528414e-05  
46.08584       6.528414e-05   6.528414e-05  
46.08599       6.528415e-05   6.528415e-05  
46.08615       6.528415e-05   6.528415e-05  
46.0863        6.528416e-05   6.528416e-05  
46.08645       6.528416e-05   6.528416e-05  
46.0866        6.528417e-05   6.528417e-05  
46.08675       6.528417e-05   6.528417e-05  
46.0869        6.528418e-05   6.528418e-05  
46.08705       6.528418e-05   6.528418e-05  
46.0872        6.528419e-05   6.528419e-05  
46.08735       6.528419e-05   6.528419e-05  
46.0875        6.528419e-05   6.528419e-05  
46.08765       6.52842e-05    6.52842e-05   
46.0878        6.52842e-05    6.52842e-05   
46.08795       6.528421e-05   6.528421e-05  
46.0881        6.528421e-05   6.528421e-05  
46.08825       6.528422e-05   6.528422e-05  
46.0884        6.528422e-05   6.528422e-05  
46.08855       6.528423e-05   6.528423e-05  
46.0887        6.528423e-05   6.528423e-05  
46.08885       6.528424e-05   6.528424e-05  
46.089         6.528424e-05   6.528424e-05  
46.08915       6.528425e-05   6.528425e-05  
46.0893        6.528425e-05   6.528425e-05  
46.08945       6.528426e-05   6.528426e-05  
46.0896        6.528426e-05   6.528426e-05  
46.08974       6.528427e-05   6.528427e-05  
46.08989       6.528427e-05   6.528427e-05  
46.09004       6.528428e-05   6.528428e-05  
46.09019       6.528428e-05   6.528428e-05  
46.09034       6.528429e-05   6.528429e-05  
46.09049       6.528429e-05   6.528429e-05  
46.09064       6.52843e-05    6.52843e-05   
46.09079       6.52843e-05    6.52843e-05   
46.09094       6.52843e-05    6.52843e-05   
46.09109       6.528431e-05   6.528431e-05  
46.09123       6.528431e-05   6.528431e-05  
46.09138       6.528432e-05   6.528432e-05  
46.09153       6.528432e-05   6.528432e-05  
46.09168       6.528433e-05   6.528433e-05  
46.09183       6.528433e-05   6.528433e-05  
46.09198       6.528434e-05   6.528434e-05  
46.09213       6.528434e-05   6.528434e-05  
46.09227       6.528435e-05   6.528435e-05  
46.09242       6.528435e-05   6.528435e-05  
46.09257       6.528436e-05   6.528436e-05  
46.09272       6.528436e-05   6.528436e-05  
46.09287       6.528437e-05   6.528437e-05  
46.09302       6.528437e-05   6.528437e-05  
46.09316       6.528438e-05   6.528438e-05  
46.09331       6.528438e-05   6.528438e-05  
46.09346       6.528439e-05   6.528439e-05  
46.09361       6.528439e-05   6.528439e-05  
46.09376       6.52844e-05    6.52844e-05   
46.09391       6.52844e-05    6.52844e-05   
46.09405       6.528441e-05   6.528441e-05  
46.0942        6.528441e-05   6.528441e-05  
46.09435       6.528442e-05   6.528442e-05  
46.0945        6.528442e-05   6.528442e-05  
46.09465       6.528443e-05   6.528443e-05  
46.09479       6.528443e-05   6.528443e-05  
46.09494       6.528444e-05   6.528444e-05  
46.09509       6.528444e-05   6.528444e-05  
46.09524       6.528445e-05   6.528445e-05  
46.09539       6.528445e-05   6.528445e-05  
46.09553       6.528446e-05   6.528446e-05  
46.09568       6.528446e-05   6.528446e-05  
46.09583       6.528447e-05   6.528447e-05  
46.09598       6.528447e-05   6.528447e-05  
46.09612       6.528448e-05   6.528448e-05  
46.09627       6.528448e-05   6.528448e-05  
46.09642       6.528449e-05   6.528449e-05  
46.09657       6.528449e-05   6.528449e-05  
46.09672       6.52845e-05    6.52845e-05   
46.09686       6.52845e-05    6.52845e-05   
46.09701       6.528451e-05   6.528451e-05  
46.09716       6.528451e-05   6.528451e-05  
46.09731       6.528452e-05   6.528452e-05  
46.09745       6.528452e-05   6.528452e-05  
46.0976        6.528453e-05   6.528453e-05  
46.09775       6.528453e-05   6.528453e-05  
46.0979        6.528454e-05   6.528454e-05  
46.09804       6.528454e-05   6.528454e-05  
46.09819       6.528455e-05   6.528455e-05  
46.09834       6.528455e-05   6.528455e-05  
46.09849       6.528456e-05   6.528456e-05  
46.09863       6.528456e-05   6.528456e-05  